128  
4    

1    
  0.0048395031904005   0.0027940884697218   0.0082929053107744
  -0.0159487000   -0.0092079500   -0.0472850400
   0.0013678600    0.0007897600   -0.0155098000
   0.0002130400    0.0001230100   -0.0171395100
   0.0011917600    0.0006881000   -0.0154082100
  -0.0015131900   -0.0008035600   -0.0164724000
  -0.0000090500    0.0000491000   -0.0172319300
   0.0002541500    0.0000239600   -0.0173552200
   0.0023140200    0.0016308300   -0.0192911400
  -0.0001271400    0.0000915500   -0.0173269700
  -0.0000456000   -0.0000221600   -0.0173913300
   0.0003779500    0.0000864200   -0.0176945100
   0.0000588600   -0.0000086100   -0.0174560600
  -0.0013451200   -0.0008897900   -0.0165385900
   0.0014718900    0.0006610200   -0.0184773600
   0.0001490200    0.0000488300   -0.0173003900
  -0.0000085000    0.0001282800   -0.0172594700
  -0.0014525500   -0.0009087100   -0.0164724100
   0.0000380100   -0.0000323600   -0.0172319400
   0.0001477700    0.0002080700   -0.0173552400
   0.0025693400    0.0011886100   -0.0192911400
   0.0000353400    0.0000203600   -0.0173330100
   0.0000560500    0.0000323600   -0.0174235500
   0.0002859800    0.0001650700   -0.0176201100
  -0.0004799500   -0.0002771300   -0.0167328400
  -0.0000323000    0.0000980700   -0.0173870900
  -0.0000226400    0.0000366800   -0.0175494800
   0.0004771300   -0.0000374000   -0.0174992900
  -0.0001701500    0.0001291600   -0.0172982600
  -0.0029679000   -0.0002524400   -0.0205567000
   0.0033955600   -0.0016405200   -0.0162582200
   0.0002567900    0.0002339100   -0.0169975700
   0.0002695900    0.0015429400   -0.0155039300
   0.0000156400   -0.0001558100   -0.0173269900
  -0.0000419900   -0.0000283400   -0.0173913100
   0.0002637400    0.0002841600   -0.0176945400
   0.0000219400    0.0000553600   -0.0174560800
   0.0000688100   -0.0000769900   -0.0173870700
   0.0000204800   -0.0000379800   -0.0175495100
   0.0002062000    0.0004319600   -0.0174992800
   0.0000268100   -0.0002119100   -0.0172982900
  -0.0002992800   -0.0001727300   -0.0178676400
  -0.0000317700   -0.0000183700   -0.0173770200
   0.0005582800    0.0003223600   -0.0171795900
   0.0000577200    0.0000333700   -0.0174562300
   0.0000025400   -0.0000050900   -0.0173699100
  -0.0001460700   -0.0001977800   -0.0172009300
   0.0001144600    0.0004856400   -0.0174652600
   0.0000191700    0.0001673600   -0.0176197400
  -0.0014431600   -0.0007200200   -0.0165385300
   0.0013083300    0.0009441900   -0.0184773800
   0.0001167800    0.0001046200   -0.0173003500
   0.0001067700   -0.0000715400   -0.0172594600
  -0.0017024600   -0.0024440500   -0.0205566800
   0.0002769700    0.0037608600   -0.0162582100
   0.0003310300    0.0001054100   -0.0169975500
   0.0014710100   -0.0005380900   -0.0155039100
  -0.0000031300    0.0000047500   -0.0173698900
  -0.0002443800   -0.0000276500   -0.0172009100
   0.0004778000   -0.0001436800   -0.0174652100
   0.0001544600   -0.0000671400   -0.0176197100
  -0.0000330800   -0.0000191700   -0.0172785000
   0.0014243600    0.0008223100   -0.0182186100
   0.0001075900    0.0000620800   -0.0174826100
   0.0000559400    0.0000322300   -0.0174229700
   0.0000733400    0.0000423400    0.0172610800
   0.0003316700    0.0001914800    0.0217408200
  -0.0001038100   -0.0000599500    0.0174129500
  -0.0000747500   -0.0000431600    0.0173547000
   0.0103019400   -0.0036766100    0.0299055600
   0.0002169300   -0.0003668500    0.0169503100
  -0.0001007600   -0.0003431500    0.0170445400
  -0.0005264600    0.0000403200    0.0169514000
   0.0000238500   -0.0000070300    0.0175296000
   0.0000076700   -0.0001273500    0.0172927300
  -0.0000964400    0.0000502800    0.0173289400
  -0.0004805200   -0.0000485700    0.0175260700
   0.0000349300   -0.0000578500    0.0174051600
   0.0004458700    0.0002925900    0.0171153000
  -0.0004444700   -0.0002415200    0.0176734700
  -0.0001019000   -0.0000406700    0.0174503500
   0.0019669300    0.0107600600    0.0299055500
  -0.0002092400    0.0003713000    0.0169503200
  -0.0003475500    0.0000843000    0.0170445500
  -0.0002283200   -0.0004760800    0.0169514100
  -0.0001649100   -0.0000952100    0.0182203800
   0.0000241000    0.0000139100    0.0173448500
  -0.0001031600   -0.0000595700    0.0173238900
  -0.0002752800   -0.0001589400    0.0175118600
   0.0002011200    0.0000662100    0.0171467900
   0.0000042600   -0.0000350900    0.0173702600
  -0.0000703000    0.0000425600    0.0174662300
  -0.0005149700   -0.0002456400    0.0178175100
   0.0000910200    0.0001556400    0.0173819400
   0.0001827800    0.0000510700    0.0174891200
  -0.0005700200   -0.0002023500    0.0176951100
  -0.0000310200   -0.0001325300    0.0173801700
   0.0000058200    0.0000241700    0.0175296000
  -0.0001064600    0.0000703300    0.0172927500
  -0.0000046800   -0.0001086700    0.0173289500
  -0.0002823100   -0.0003918600    0.0175260700
   0.0001579000    0.0001410800    0.0171467900
  -0.0000282700    0.0000212100    0.0173702700
   0.0000017000   -0.0000821400    0.0174662200
  -0.0004702100   -0.0003231800    0.0178175100
  -0.0000496100   -0.0000286400    0.0173066400
  -0.0000034200   -0.0000019900    0.0174680200
  -0.0000146400   -0.0000084500    0.0175211600
  -0.0001458000   -0.0000841800    0.0171699900
   0.0002546600   -0.0001093700    0.0177483200
   0.0003524200    0.0001575000    0.0180877700
  -0.0007451900    0.0002032400    0.0166672700
  -0.0003574300   -0.0008267000    0.0167331000
  -0.0000326400    0.0000591500    0.0174051700
   0.0004763300    0.0002398400    0.0171153000
  -0.0004313900   -0.0002641700    0.0176734800
  -0.0000861800   -0.0000679100    0.0174503500
   0.0001802900    0.0000010100    0.0173819300
   0.0001356100    0.0001327500    0.0174891200
  -0.0004602400   -0.0003924800    0.0176951100
  -0.0001302800    0.0000393900    0.0173801600
   0.0000326100    0.0002752200    0.0177483400
   0.0003126000    0.0002264500    0.0180877700
  -0.0001965800   -0.0007469700    0.0166672600
  -0.0008946400    0.0001038000    0.0167331000
   0.0000105400    0.0000060600    0.0174661900
   0.0000486000    0.0000280600    0.0174134100
  -0.0009258900   -0.0005345500    0.0174555700
  -0.0001346000   -0.0000777200    0.0174529700

1    
 -0.0048395031904005  -0.0027940884697218  -0.0082929053107744
   0.0163537600    0.0094418700    0.0129395600
  -0.0013419800   -0.0007747600   -0.0193397400
  -0.0002088500   -0.0001205700   -0.0177378100
  -0.0012006900   -0.0006932100   -0.0194850600
   0.0014930400    0.0007884800   -0.0184003600
   0.0000082500   -0.0000482600   -0.0176483600
  -0.0002520600   -0.0000207400   -0.0175299000
  -0.0023101800   -0.0016312400   -0.0155992800
   0.0001240900   -0.0000921700   -0.0175525100
   0.0000459400    0.0000241200   -0.0174932200
  -0.0003747300   -0.0000827100   -0.0171924600
  -0.0000598900    0.0000075200   -0.0174250900
   0.0013437900    0.0008855100   -0.0183430800
  -0.0014699300   -0.0006501200   -0.0164246500
  -0.0001468800   -0.0000488000   -0.0175799300
   0.0000087200   -0.0001307100   -0.0176214100
   0.0014292900    0.0008987400   -0.0184003500
  -0.0000376600    0.0000312800   -0.0176483700
  -0.0001440200   -0.0002079300   -0.0175299300
  -0.0025677900   -0.0011850200   -0.0155992900
  -0.0000373200   -0.0000216100   -0.0175487900
  -0.0000556500   -0.0000321400   -0.0174596000
  -0.0002861800   -0.0001652600   -0.0172621100
   0.0004906900    0.0002832900   -0.0181404300
   0.0000299900   -0.0000971600   -0.0174985200
   0.0000245200   -0.0000369500   -0.0173339800
  -0.0004742200    0.0000358100   -0.0173802800
   0.0001663700   -0.0001308400   -0.0175789700
   0.0029753500    0.0002565100   -0.0143237700
  -0.0033491500    0.0016265200   -0.0185998000
  -0.0002493100   -0.0002326200   -0.0178767300
  -0.0002733800   -0.0014989900   -0.0193388000
  -0.0000178500    0.0001536300   -0.0175525300
   0.0000438600    0.0000277700   -0.0174932200
  -0.0002590900   -0.0002831500   -0.0171925100
  -0.0000234300   -0.0000555300   -0.0174250700
  -0.0000691200    0.0000745800   -0.0174985200
  -0.0000197200    0.0000397100   -0.0173340000
  -0.0002061100   -0.0004285600   -0.0173802600
  -0.0000300700    0.0002095400   -0.0175789900
   0.0002975100    0.0001718200   -0.0170195100
   0.0000372300    0.0000214400   -0.0175011900
  -0.0005471700   -0.0003158900   -0.0176827300
  -0.0000624100   -0.0000359800   -0.0174332700
  -0.0000042300    0.0000023700   -0.0175094400
   0.0001477300    0.0001956200   -0.0176769500
  -0.0001088300   -0.0004840200   -0.0174198500
  -0.0000210100   -0.0001676700   -0.0172650500
   0.0014387400    0.0007209900   -0.0183430500
  -0.0012980300   -0.0009479400   -0.0164246600
  -0.0001157200   -0.0001028200   -0.0175798700
  -0.0001089100    0.0000728900   -0.0176214100
   0.0017099200    0.0024484600   -0.0143237200
  -0.0002660500   -0.0037137400   -0.0185997900
  -0.0003260800   -0.0000996100   -0.0178767200
  -0.0014348600    0.0005126800   -0.0193387900
  -0.0000000300   -0.0000048200   -0.0175094400
   0.0002432400    0.0000301100   -0.0176769200
  -0.0004735800    0.0001477700   -0.0174198000
  -0.0001558000    0.0000655500   -0.0172650200
   0.0000341800    0.0000196800   -0.0176032400
  -0.0014437200   -0.0008335400   -0.0166392200
  -0.0001070400   -0.0000618200   -0.0174028000
  -0.0000557100   -0.0000322300   -0.0174590300
  -0.0000725700   -0.0000419000    0.0176223800
  -0.0003609400   -0.0002083900    0.0131869300
   0.0001008000    0.0000581800    0.0174696200
   0.0000739000    0.0000426600    0.0175269400
  -0.0107326700    0.0039251400    0.0046616500
  -0.0002198400    0.0004024600    0.0179463100
   0.0000983900    0.0003370500    0.0178294700
   0.0005223400   -0.0000456400    0.0179232900
  -0.0000232100    0.0000063900    0.0173531800
  -0.0000076300    0.0001263000    0.0175876500
   0.0000936900   -0.0000536800    0.0175515600
   0.0004708700    0.0000493200    0.0173567300
  -0.0000349500    0.0000578900    0.0174764200
  -0.0004454400   -0.0002954400    0.0177650500
   0.0004453400    0.0002388700    0.0172115700
   0.0001012600    0.0000402600    0.0174322900
  -0.0019670600   -0.0112573300    0.0046616500
   0.0002386300   -0.0003916100    0.0179463300
   0.0003410900   -0.0000833300    0.0178294700
   0.0002216200    0.0004751900    0.0179232900
   0.0001721200    0.0000993600    0.0166392200
  -0.0000235200   -0.0000135800    0.0175347500
   0.0001022600    0.0000590300    0.0175580000
   0.0002767400    0.0001597700    0.0173727300
  -0.0001982700   -0.0000655700    0.0177315700
  -0.0000041600    0.0000347700    0.0175121000
   0.0000693200   -0.0000434600    0.0174168100
   0.0005160500    0.0002472000    0.0170625900
  -0.0000845600   -0.0001562200    0.0174927700
  -0.0001856600   -0.0000522600    0.0173949800
   0.0005650200    0.0001986400    0.0171908900
   0.0000297000    0.0001336000    0.0174988000
  -0.0000060900   -0.0000232900    0.0173531900
   0.0001055700   -0.0000697500    0.0175876700
   0.0000003500    0.0001079600    0.0175515800
   0.0002781600    0.0003831200    0.0173567100
  -0.0001559100   -0.0001389300    0.0177315800
   0.0000280200   -0.0000210000    0.0175121100
  -0.0000029900    0.0000817700    0.0174168200
   0.0004721200    0.0003233000    0.0170626000
   0.0000509300    0.0000294100    0.0175736100
   0.0000030100    0.0000017100    0.0174154200
   0.0000128200    0.0000074000    0.0173584200
   0.0001416800    0.0000817900    0.0177084000
  -0.0002525500    0.0001062700    0.0171346000
  -0.0003563300   -0.0001509800    0.0167918400
   0.0007324200   -0.0002010300    0.0181979900
   0.0003550500    0.0008047400    0.0181320700
   0.0000326500   -0.0000592200    0.0174764300
  -0.0004785600   -0.0002380300    0.0177650500
   0.0004295500    0.0002662300    0.0172115700
   0.0000854900    0.0000675700    0.0174322900
  -0.0001775800    0.0000048600    0.0174927500
  -0.0001380900   -0.0001346600    0.0173949900
   0.0004545500    0.0003900000    0.0171908800
   0.0001305700   -0.0000410900    0.0174987900
  -0.0000342500   -0.0002718400    0.0171346000
  -0.0003089200   -0.0002331000    0.0167918500
   0.0001921100    0.0007348100    0.0181979700
   0.0008744500   -0.0000949000    0.0181320700
  -0.0000103300   -0.0000059800    0.0174166000
  -0.0000516500   -0.0000298200    0.0174654300
   0.0009299600    0.0005369200    0.0174173700
   0.0001333200    0.0000769700    0.0174294300

65   
  0.0048395031904005   0.0027940884697218   0.0082929053107744
   0.0000730700    0.0000422500   -0.0176216000
  -0.0000581500   -0.0000335600   -0.0175398700
  -0.0001532700   -0.0000884700   -0.0174306300
  -0.0005532600   -0.0003193800   -0.0124758800
   0.0000194500   -0.0000485700   -0.0174709900
  -0.0001009400   -0.0000248100   -0.0174379000
  -0.0003914900   -0.0002569000   -0.0172375300
   0.0001709900    0.0000974800   -0.0175365900
   0.0000754300   -0.0000374700   -0.0173743000
  -0.0005284700   -0.0000225700   -0.0173343100
  -0.0000952500    0.0000208700   -0.0175400800
   0.0002240300    0.0000199400   -0.0177625400
   0.0116319300   -0.0044531000   -0.0050448700
  -0.0002491300   -0.0005698100   -0.0178778900
  -0.0003153200    0.0000082100   -0.0178192900
   0.0002211100   -0.0014902200   -0.0175916800
  -0.0000324500    0.0000410200   -0.0174710000
  -0.0000719200   -0.0000749100   -0.0174378600
  -0.0004183700   -0.0002106600   -0.0172375400
   0.0001698800    0.0000994100   -0.0175365400
  -0.0000033400   -0.0000021100   -0.0174067600
  -0.0001334200   -0.0000770600   -0.0174291200
  -0.0004799200   -0.0002772900   -0.0177723000
  -0.0000152700   -0.0000088800   -0.0174159800
   0.0000243400    0.0002840500   -0.0171307600
  -0.0013361700    0.0003609800   -0.0179616400
  -0.0001944000   -0.0007866800   -0.0181821500
   0.0004419500    0.0001052800   -0.0168296000
   0.0004883800    0.0002725100   -0.0177688600
  -0.0000640800    0.0000040300   -0.0175254000
  -0.0005890300   -0.0003910600   -0.0171124500
   0.0001369700   -0.0000850200   -0.0173202100
   0.0000050300    0.0000842600   -0.0173743200
  -0.0002837900   -0.0004462600   -0.0173342000
  -0.0000298400   -0.0000928200   -0.0175401800
   0.0001293100    0.0001843600   -0.0177625300
   0.0002582800   -0.0001208500   -0.0171307200
  -0.0003553800   -0.0013377600   -0.0179617800
  -0.0007784500    0.0002251100   -0.0181821400
   0.0003122900    0.0003302800   -0.0168297000
  -0.0000228300   -0.0000129800   -0.0175951600
  -0.0000971700   -0.0000562600   -0.0177462900
  -0.0000129400   -0.0000073500   -0.0173610000
   0.0000241100    0.0000141000   -0.0174360500
  -0.0000789700    0.0000540700   -0.0175668200
  -0.0004281900   -0.0002688400   -0.0171068500
  -0.0000248600   -0.0000663300   -0.0174058900
  -0.0000277400    0.0000129500   -0.0175090400
   0.0019594700    0.0123001000   -0.0050447400
  -0.0006182200    0.0000692300   -0.0178779800
  -0.0001506200   -0.0002773000   -0.0178191500
  -0.0011801800    0.0009364600   -0.0175916800
   0.0004806200    0.0002867100   -0.0177688400
  -0.0000288500   -0.0000575400   -0.0175254200
  -0.0006330800   -0.0003146600   -0.0171124500
  -0.0000051900    0.0001608700   -0.0173201800
   0.0000074500   -0.0000952800   -0.0175668300
  -0.0004470400   -0.0002365400   -0.0171068400
  -0.0000698900    0.0000116300   -0.0174057900
  -0.0000029600   -0.0000307700   -0.0175090200
   0.0007736000    0.0004464800   -0.0173737900
  -0.0000858100   -0.0000496000   -0.0175167100
  -0.0000958200   -0.0000553800   -0.0175629200
   0.0000228600    0.0000129800   -0.0175358800
  -0.0211982800   -0.0122388400   -0.0176306900
   0.0003434800    0.0001982600    0.0180163600
   0.0000585800    0.0000337900    0.0175175100
   0.0003933100    0.0002270700    0.0179166900
  -0.0002884700   -0.0001585700    0.0176741300
   0.0000427900    0.0000555200    0.0175300800
   0.0001265100    0.0000798600    0.0174864500
   0.0014913000    0.0003331300    0.0167475800
  -0.0000436700   -0.0000581800    0.0174884200
   0.0000693900    0.0000276400    0.0174452300
   0.0001451800    0.0001001500    0.0172923500
   0.0000483700    0.0000449300    0.0174518200
  -0.0003567000   -0.0001204700    0.0176926900
   0.0014241000    0.0005692000    0.0167130100
   0.0001488900    0.0000183400    0.0174945100
   0.0000433000   -0.0000199300    0.0175540800
  -0.0002815400   -0.0001705400    0.0176741200
   0.0000695100    0.0000092500    0.0175301000
   0.0001324300    0.0000695800    0.0174864700
   0.0010341700    0.0011249000    0.0167476100
   0.0000062600    0.0000036000    0.0175716400
   0.0000551900    0.0000318200    0.0174865400
   0.0001480000    0.0000854300    0.0174543200
   0.0009120500    0.0005265000    0.0169957900
  -0.0000045600    0.0000569900    0.0174597800
   0.0000442100   -0.0000139700    0.0174570000
   0.0006499300    0.0000903800    0.0175700100
  -0.0000139700    0.0000798100    0.0179061500
  -0.0008314500   -0.0006671000    0.0160621200
   0.0020006000   -0.0009168900    0.0196832700
   0.0004515300    0.0000471200    0.0179750900
   0.0002018300    0.0037084400    0.0191595300
  -0.0000721600   -0.0000087600    0.0174884200
   0.0000586200    0.0000462500    0.0174451900
   0.0001593500    0.0000756200    0.0172923500
   0.0000631000    0.0000193900    0.0174517900
   0.0000471200   -0.0000324900    0.0174598300
   0.0000100100    0.0000452400    0.0174569400
   0.0004032900    0.0005176700    0.0175700600
   0.0000621600   -0.0000520600    0.0179060900
  -0.0001721700   -0.0000994100    0.0171568400
   0.0001301300    0.0000751200    0.0174949300
   0.0004117600    0.0002377200    0.0180459600
   0.0000749200    0.0000432400    0.0175385900
   0.0000416100    0.0000191800    0.0174447700
   0.0003334300    0.0000009200    0.0177294200
   0.0004590700    0.0004842100    0.0175496300
   0.0000098200    0.0000750300    0.0174474600
  -0.0002826500   -0.0002486200    0.0176926400
   0.0012050000    0.0009487300    0.0167129500
   0.0000903900    0.0001198300    0.0174945500
   0.0000044000    0.0000475100    0.0175540000
  -0.0009934400   -0.0003864600    0.0160620500
   0.0002062800    0.0021910400    0.0196833200
   0.0002666300    0.0003674900    0.0179750300
   0.0033125400   -0.0016794100    0.0191594900
   0.0000374000    0.0000264800    0.0174447300
   0.0001675100    0.0002883500    0.0177294600
   0.0006488800    0.0001555100    0.0175496100
   0.0000699000   -0.0000289600    0.0174474400
   0.0000716700    0.0000414500    0.0175201700
  -0.0004349100   -0.0002510100    0.0180415600
   0.0001235500    0.0000713800    0.0174737500
   0.0000554600    0.0000320900    0.0174862400

65   
 -0.0048395031904005  -0.0027940884697218  -0.0082929053107744
  -0.0000725000   -0.0000418400   -0.0172597400
   0.0000594100    0.0000343200   -0.0173431100
   0.0001555000    0.0000897800   -0.0174549300
   0.0005745900    0.0003317500   -0.0224460500
  -0.0000190900    0.0000487000   -0.0174116700
   0.0001023600    0.0000253100   -0.0174456800
   0.0003887400    0.0002602900   -0.0176481800
  -0.0001714600   -0.0000905800   -0.0173419200
  -0.0000759800    0.0000361900   -0.0175101800
   0.0005323200    0.0000219200   -0.0175498200
   0.0000948500   -0.0000189600   -0.0173390200
  -0.0002269800   -0.0000188700   -0.0171150200
  -0.0112223000    0.0041994900   -0.0295801400
   0.0002506500    0.0005728700   -0.0169995000
   0.0003194100   -0.0000053700   -0.0170550400
  -0.0002155900    0.0014456400   -0.0173254500
   0.0000325800   -0.0000409100   -0.0174116700
   0.0000731100    0.0000760200   -0.0174457000
   0.0004197400    0.0002064900   -0.0176482200
  -0.0001641600   -0.0001031600   -0.0173419300
   0.0000027400    0.0000015300   -0.0174771000
   0.0001344400    0.0000776100   -0.0174526200
   0.0004681600    0.0002702500   -0.0171037200
   0.0000144400    0.0000083400   -0.0174655900
  -0.0000194100   -0.0002860500   -0.0177501100
   0.0013406000   -0.0003620000   -0.0169159700
   0.0001944400    0.0007996200   -0.0166869500
  -0.0004482800   -0.0000994600   -0.0180548000
  -0.0004905000   -0.0002765700   -0.0171091100
   0.0000665700   -0.0000015800   -0.0173565000
   0.0005945900    0.0003937000   -0.0177744800
  -0.0001370100    0.0000824700   -0.0175612700
  -0.0000067200   -0.0000838400   -0.0175102000
   0.0002851500    0.0004501100   -0.0175498100
   0.0000309100    0.0000916200   -0.0173390500
  -0.0001298300   -0.0001870700   -0.0171150100
  -0.0002574100    0.0001262300   -0.0177501000
   0.0003568400    0.0013419900   -0.0169159900
   0.0007897200   -0.0002314100   -0.0166869300
  -0.0003102400   -0.0003384700   -0.0180548200
   0.0000224000    0.0000129800   -0.0172848500
   0.0000999100    0.0000576600   -0.0171375300
   0.0000148000    0.0000085600   -0.0175232300
  -0.0000238700   -0.0000137700   -0.0174460900
   0.0000779300   -0.0000553100   -0.0173141900
   0.0004275400    0.0002700700   -0.0177752900
   0.0000253000    0.0000663700   -0.0174763900
   0.0000281600   -0.0000135200   -0.0173728400
  -0.0019743000   -0.0118185600   -0.0295801000
   0.0006214100   -0.0000693500   -0.0169995000
   0.0001550300    0.0002792800   -0.0170549900
   0.0011441100   -0.0009095500   -0.0173254400
  -0.0004846900   -0.0002865100   -0.0171090700
   0.0000318500    0.0000584100   -0.0173564800
   0.0006382900    0.0003180800   -0.0177744700
   0.0000028800   -0.0001599400   -0.0175612500
  -0.0000089200    0.0000951500   -0.0173141700
   0.0004476100    0.0002351800   -0.0177752700
   0.0000701500   -0.0000112500   -0.0174763500
   0.0000023200    0.0000310700   -0.0173728200
  -0.0007653600   -0.0004419400   -0.0174948400
   0.0000891300    0.0000514400   -0.0173627800
   0.0000959800    0.0000554000   -0.0173184300
  -0.0000248000   -0.0000143700   -0.0173456500
   0.0209016200    0.0120675400    0.0522212100
  -0.0003237000   -0.0001868900    0.0168989600
  -0.0000599100   -0.0000346000    0.0173637200
  -0.0004247700   -0.0002452400    0.0169163700
   0.0002828700    0.0001638300    0.0172172800
  -0.0000433100   -0.0000548000    0.0173523400
  -0.0001286100   -0.0000803500    0.0173955000
  -0.0015109800   -0.0003335800    0.0181390400
   0.0000444100    0.0000583100    0.0173928500
  -0.0000699700   -0.0000274000    0.0174370900
  -0.0001456800   -0.0001021600    0.0175920100
  -0.0000478000   -0.0000455800    0.0174303200
   0.0003653500    0.0001148200    0.0171771700
  -0.0014212600   -0.0005728200    0.0181731100
  -0.0001494900   -0.0000190900    0.0173874900
  -0.0000428000    0.0000199400    0.0173256900
   0.0002833200    0.0001630600    0.0172172900
  -0.0000691100   -0.0000101000    0.0173523500
  -0.0001338900   -0.0000712100    0.0173955100
  -0.0010444000   -0.0011417500    0.0181390500
  -0.0000068100   -0.0000039400    0.0173112800
  -0.0000556700   -0.0000321400    0.0173962800
  -0.0001491600   -0.0000861200    0.0174280000
  -0.0008851700   -0.0005110600    0.0178618300
   0.0000056000   -0.0000571200    0.0174223300
  -0.0000458100    0.0000147500    0.0174257900
  -0.0006508300   -0.0000936800    0.0173093600
   0.0000157600   -0.0000812500    0.0169711700
   0.0008158000    0.0006688600    0.0188030500
  -0.0020148800    0.0009304400    0.0151852600
  -0.0004542200   -0.0000525600    0.0169014000
  -0.0002061000   -0.0037578700    0.0156936900
   0.0000726800    0.0000093100    0.0173928500
  -0.0000587000   -0.0000468900    0.0174371100
  -0.0001613200   -0.0000750900    0.0175920300
  -0.0000633700   -0.0000186100    0.0174303200
  -0.0000466700    0.0000334200    0.0174223500
  -0.0000101400   -0.0000470600    0.0174258100
  -0.0004065600   -0.0005167800    0.0173093600
  -0.0000624800    0.0000542500    0.0169711700
   0.0001726300    0.0000996700    0.0177269400
  -0.0001313000   -0.0000758200    0.0173841000
  -0.0004153100   -0.0002397800    0.0168268100
  -0.0000771700   -0.0000445700    0.0173427000
  -0.0000430100   -0.0000181700    0.0174368500
  -0.0003346800   -0.0000023500    0.0171485800
  -0.0004599800   -0.0004872000    0.0173314600
  -0.0000103400   -0.0000749300    0.0174356000
   0.0002821200    0.0002589800    0.0171771600
  -0.0012066900   -0.0009444300    0.0181731100
  -0.0000912500   -0.0001199300    0.0173874800
  -0.0000041500   -0.0000470300    0.0173256900
   0.0009871400    0.0003720600    0.0188030200
  -0.0002016600   -0.0022101700    0.0151852700
  -0.0002726200   -0.0003670800    0.0169013900
  -0.0033574500    0.0017004300    0.0156936800
  -0.0000372600   -0.0000281700    0.0174368400
  -0.0001693900   -0.0002886700    0.0171485900
  -0.0006519100   -0.0001547400    0.0173314400
  -0.0000700500    0.0000285000    0.0174356100
  -0.0000714300   -0.0000412600    0.0173608700
   0.0004222100    0.0002437700    0.0168422700
  -0.0001238900   -0.0000715100    0.0174089600
  -0.0000556500   -0.0000321400    0.0173959900
