 DBCSR| CPU Multiplication driver                                           XSMM (U)
 DBCSR| Multrec recursion limit                                              512 (U)
 DBCSR| Multiplication stack size                                           1000 (D)
 DBCSR| Maximum elements for images                                    UNLIMITED (U)
 DBCSR| Multiplicative factor virtual images                                   1 (U)
 DBCSR| Use multiplication densification                                       T (D)
 DBCSR| Multiplication size stacks                                             3 (U)
 DBCSR| Use memory pool for CPU allocation                                     F (U)
 DBCSR| Number of 3D layers                                               SINGLE (U)
 DBCSR| Use MPI memory allocation                                              F (U)
 DBCSR| Use RMA algorithm                                                      F (U)
 DBCSR| Use Communication thread                                               T (U)
 DBCSR| Communication thread load                                             87 (D)
 DBCSR| MPI: My process id                                                     0
 DBCSR| MPI: Number of processes                                              16
 DBCSR| OMP: Current number of threads                                         1
 DBCSR| OMP: Max number of threads                                             1
 DBCSR| Split modifier for TAS multiplication algorithm                  1.0E+00 (U)


  **** **** ******  **  PROGRAM STARTED AT               2024-10-31 14:56:02.309
 ***** ** ***  *** **   PROGRAM STARTED ON                                  cu63
 **    ****   ******    PROGRAM STARTED BY                     changruiwang-ICME
 ***** **    ** ** **   PROGRAM PROCESS ID                                135548
  **** **  *******  **  PROGRAM STARTED IN /home/changruiwang-ICME/test/cp2k/Fe3
                                           GaTe2/OT_pob

 CP2K| version string:                                       CP2K version 2023.1
 CP2K| source code revision number:                                  git:b888bd8
 CP2K| cp2kflags: omp libint fftw3 libxc parallel scalapack cosma xsmm plumed2 s
 CP2K|            pglib mkl libvori libbqb
 CP2K| is freely available from                            https://www.cp2k.org/
 CP2K| Program compiled at                          Sun Dec 17 21:03:25 CST 2023
 CP2K| Program compiled on                                                  cu02
 CP2K| Program compiled for                                                local
 CP2K| Data directory path    /home/changruiwang-ICME/Software/cp2k-2023.1/data/
 CP2K| Input file name                                                  cp2k.inp
 
 GLOBAL| Force Environment number                                              1
 GLOBAL| Basis set file name                                           BASIS_pob
 GLOBAL| Potential file name                                       POTENTIAL_UZH
 GLOBAL| MM Potential file name                                     MM_POTENTIAL
 GLOBAL| Coordinate file name                                          sc661.cif
 GLOBAL| Method name                                                        CP2K
 GLOBAL| Project name                                                       cp2k
 GLOBAL| Run type                                                   ENERGY_FORCE
 GLOBAL| FFT library                                                       FFTW3
 GLOBAL| Diagonalization library                                       ScaLAPACK
 GLOBAL| DGEMM library                                                      BLAS
 GLOBAL| Orthonormality check for eigenvectors                          DISABLED
 GLOBAL| Matrix multiplication library                                     COSMA
 GLOBAL| All-to-all communication in single precision                          F
 GLOBAL| FFTs using library dependent lengths                                  F
 GLOBAL| Grid backend                                                       AUTO
 GLOBAL| Global print level                                               MEDIUM
 GLOBAL| MPI I/O enabled                                                       T
 GLOBAL| Total number of message passing processes                            16
 GLOBAL| Number of threads for this process                                    1
 GLOBAL| This output is from process                                           0
 GLOBAL| Stack size for threads created by OpenMP (OMP_STACKSIZE)           200M
 GLOBAL| CPU model name                Intel(R) Xeon(R) Gold 6226R CPU @ 2.90GHz
 GLOBAL| CPUID                                                              1003

 MEMORY| system memory details [Kb]
 MEMORY|                        rank 0           min           max       average
 MEMORY| MemTotal            196507216     196507216     196507216     196507216
 MEMORY| MemFree             162719680     162719680     162719680     162719680
 MEMORY| Buffers                207752        207752        207752        207752
 MEMORY| Cached               29948540      29948540      29948540      29948540
 MEMORY| Slab                   377080        377080        377080        377080
 MEMORY| SReclaimable           257336        257336        257336        257336
 MEMORY| MemLikelyFree       193133308     193133308     193133308     193133308


 *** Fundamental physical constants (SI units) ***

 *** Literature: B. J. Mohr and B. N. Taylor,
 ***             CODATA recommended values of the fundamental physical
 ***             constants: 2006, Web Version 5.1
 ***             http://physics.nist.gov/constants

 Speed of light in vacuum [m/s]                             2.99792458000000E+08
 Magnetic constant or permeability of vacuum [N/A**2]       1.25663706143592E-06
 Electric constant or permittivity of vacuum [F/m]          8.85418781762039E-12
 Planck constant (h) [J*s]                                  6.62606896000000E-34
 Planck constant (h-bar) [J*s]                              1.05457162825177E-34
 Elementary charge [C]                                      1.60217648700000E-19
 Electron mass [kg]                                         9.10938215000000E-31
 Electron g factor [ ]                                     -2.00231930436220E+00
 Proton mass [kg]                                           1.67262163700000E-27
 Fine-structure constant                                    7.29735253760000E-03
 Rydberg constant [1/m]                                     1.09737315685270E+07
 Avogadro constant [1/mol]                                  6.02214179000000E+23
 Boltzmann constant [J/K]                                   1.38065040000000E-23
 Atomic mass unit [kg]                                      1.66053878200000E-27
 Bohr radius [m]                                            5.29177208590000E-11

 *** Conversion factors ***

 [u] -> [a.u.]                                              1.82288848426455E+03
 [Angstrom] -> [Bohr] = [a.u.]                              1.88972613288564E+00
 [a.u.] = [Bohr] -> [Angstrom]                              5.29177208590000E-01
 [a.u.] -> [s]                                              2.41888432650478E-17
 [a.u.] -> [fs]                                             2.41888432650478E-02
 [a.u.] -> [J]                                              4.35974393937059E-18
 [a.u.] -> [N]                                              8.23872205491840E-08
 [a.u.] -> [K]                                              3.15774647902944E+05
 [a.u.] -> [kJ/mol]                                         2.62549961709828E+03
 [a.u.] -> [kcal/mol]                                       6.27509468713739E+02
 [a.u.] -> [Pa]                                             2.94210107994716E+13
 [a.u.] -> [bar]                                            2.94210107994716E+08
 [a.u.] -> [atm]                                            2.90362800883016E+08
 [a.u.] -> [eV]                                             2.72113838565563E+01
 [a.u.] -> [Hz]                                             6.57968392072181E+15
 [a.u.] -> [1/cm] (wave numbers)                            2.19474631370540E+05
 [a.u./Bohr**2] -> [1/cm]                                   5.14048714338585E+03
 

 CELL_TOP| Volume [angstrom^3]:                                     10069.158638
 CELL_TOP| Vector a [angstrom    23.975     0.000     0.000   |a| =    23.974801
 CELL_TOP| Vector b [angstrom   -11.997    20.769     0.000   |b| =    23.985425
 CELL_TOP| Vector c [angstrom     0.000     0.000    20.222   |c| =    20.221639
 CELL_TOP| Angle (b,c), alpha [degree]:                                90.000000
 CELL_TOP| Angle (a,c), beta  [degree]:                                90.000000
 CELL_TOP| Angle (a,b), gamma [degree]:                               120.012843
 CELL_TOP| Numerically orthorhombic:                                          NO
 CELL_TOP| Periodicity                                                       XYZ

 CELL_CIF| Volume [angstrom^3]:                                     10069.158638
 CELL_CIF| Vector a [angstrom    23.975     0.000     0.000   |a| =    23.974801
 CELL_CIF| Vector b [angstrom   -11.997    20.769     0.000   |b| =    23.985425
 CELL_CIF| Vector c [angstrom     0.000     0.000    20.222   |c| =    20.221639
 CELL_CIF| Angle (b,c), alpha [degree]:                                90.000000
 CELL_CIF| Angle (a,c), beta  [degree]:                                90.000000
 CELL_CIF| Angle (a,b), gamma [degree]:                               120.012843
 CELL_CIF| Numerically orthorhombic:                                          NO
 CELL_CIF| Periodicity                                                       XYZ
 
 GENERATE|  Preliminary Number of Bonds generated:                             0
 GENERATE|  Achieved consistency in connectivity generation.

 CELL| Volume [angstrom^3]:                                         10069.158638
 CELL| Vector a [angstrom]:      23.975     0.000     0.000   |a| =    23.974801
 CELL| Vector b [angstrom]:     -11.997    20.769     0.000   |b| =    23.985425
 CELL| Vector c [angstrom]:       0.000     0.000    20.222   |c| =    20.221639
 CELL| Angle (b,c), alpha [degree]:                                    90.000000
 CELL| Angle (a,c), beta  [degree]:                                    90.000000
 CELL| Angle (a,b), gamma [degree]:                                   120.012843
 CELL| Numerically orthorhombic:                                              NO
 CELL| Periodicity                                                           XYZ

 CELL_REF| Volume [angstrom^3]:                                     10069.158638
 CELL_REF| Vector a [angstrom    23.975     0.000     0.000   |a| =    23.974801
 CELL_REF| Vector b [angstrom   -11.997    20.769     0.000   |b| =    23.985425
 CELL_REF| Vector c [angstrom     0.000     0.000    20.222   |c| =    20.221639
 CELL_REF| Angle (b,c), alpha [degree]:                                90.000000
 CELL_REF| Angle (a,c), beta  [degree]:                                90.000000
 CELL_REF| Angle (a,b), gamma [degree]:                               120.012843
 CELL_REF| Numerically orthorhombic:                                          NO
 CELL_REF| Periodicity                                                       XYZ

 *******************************************************************************
 *******************************************************************************
 **                                                                           **
 **     #####                         ##              ##                      **
 **    ##   ##            ##          ##              ##                      **
 **   ##     ##                       ##            ######                    **
 **   ##     ##  ##   ##  ##   #####  ##  ##   ####   ##    #####    #####    **
 **   ##     ##  ##   ##  ##  ##      ## ##   ##      ##   ##   ##  ##   ##   **
 **   ##  ## ##  ##   ##  ##  ##      ####     ###    ##   ######   ######    **
 **    ##  ###   ##   ##  ##  ##      ## ##      ##   ##   ##       ##        **
 **     #######   #####   ##   #####  ##  ##  ####    ##    #####   ##        **
 **           ##                                                    ##        **
 **                                                                           **
 **                                                ... make the atoms dance   **
 **                                                                           **
 **            Copyright (C) by CP2K developers group (2000-2022)             **
 **                      J. Chem. Phys. 152, 194103 (2020)                    **
 **                                                                           **
 *******************************************************************************

 DFT| Spin unrestricted (spin-polarized) Kohn-Sham calculation               UKS
 DFT| Multiplicity                                                           433
 DFT| Number of spin states                                                    2
 DFT| Charge                                                                   0
 DFT| Self-interaction correction (SIC)                                       NO
 DFT| Cutoffs: density                                              1.000000E-10
 DFT|          gradient                                             1.000000E-10
 DFT|          tau                                                  1.000000E-10
 DFT|          cutoff_smoothing_range                               0.000000E+00
 DFT| XC density smoothing                                                  NONE
 DFT| XC derivatives                                                          PW

 FUNCTIONAL| PBE:
 FUNCTIONAL| J.P.Perdew, K.Burke, M.Ernzerhof, Phys. Rev. Letter, vol. 77, n 18,
 FUNCTIONAL|  pp. 3865-3868, (1996){spin polarized}                             


 QS| Method:                                                                GAPW
 QS| Density plane wave grid type                        NON-SPHERICAL FULLSPACE
 QS| Number of grid levels:                                                    4
 QS| Density cutoff [a.u.]:                                                500.0
 QS| Multi grid cutoff [a.u.]: 1) grid level                               500.0
 QS|                           2) grid level                               166.7
 QS|                           3) grid level                                55.6
 QS|                           4) grid level                                18.5
 QS| Grid level progression factor:                                          3.0
 QS| Relative density cutoff [a.u.]:                                        30.0
 QS| Interaction thresholds: eps_pgf_orb:                                1.0E-06
 QS|                         eps_filter_matrix:                          0.0E+00
 QS|                         eps_core_charge:                            1.0E-14
 QS|                         eps_rho_gspace:                             1.0E-12
 QS|                         eps_rho_rspace:                             1.0E-12
 QS|                         eps_gvg_rspace:                             1.0E-06
 QS|                         eps_ppl:                                    1.0E-02
 QS|                         eps_ppnl:                                   1.0E-08
 QS| GAPW|                   eps_fit:                                    1.0E-04
 QS| GAPW|                   eps_iso:                                    1.0E-12
 QS| GAPW|                   eps_svd:                                    1.0E-08
 QS| GAPW|                   eps_cpc:                                    1.0E-12
 QS| GAPW|   atom-r-grid: quadrature:                                     GC_LOG
 QS| GAPW|      atom-s-grid:  max l :                                          6
 QS| GAPW|      max_l_rho0 :                                                   2


 ATOMIC KIND INFORMATION

  1. Atomic kind: Fe                                    Number of atoms:     108

     Orbital Basis Set                                             pob-TZVP-rev2

       Number of orbital shell sets:                                          14
       Number of orbital shells:                                              14
       Number of primitive Cartesian functions:                               35
       Number of Cartesian basis functions:                                   46
       Number of spherical basis functions:                                   40
       Norm type:                                                              2

       Normalised Cartesian orbitals:

                        Set   Shell   Orbital            Exponent    Coefficient

                          1       1    1s           300784.846370       2.206372
                                                     45088.970557       4.121082
                                                     10262.516317       7.060188
                                                      2905.289729      11.134711
                                                       946.114871      15.613712
                                                       339.878329      17.183123
                                                       131.944256      12.060024
                                                        52.111494       3.143737

                          2       1    2s              329.488393      -1.362322
                                                       101.923327      -2.667910
                                                        16.240463       3.184434
                                                         6.884068       1.621699

                          3       1    3s               10.470694      -1.565890
                                                         1.736004       1.263566

                          4       1    4s                1.256517       0.845836

                          5       1    4s                0.575484       0.470907

                          6       1    4s                0.155892       0.176818

                          7       1    2px            1585.395997      39.065534
                                                       375.380065      52.209044
                                                       120.318165      58.873073
                                                        44.788749      49.057447
                                                        17.829279      24.948430
                                                         7.224715       4.705765
                          7       1    2py            1585.395997      39.065534
                                                       375.380065      52.209044
                                                       120.318165      58.873073
                                                        44.788749      49.057447
                                                        17.829279      24.948430
                                                         7.224715       4.705765
                          7       1    2pz            1585.395997      39.065534
                                                       375.380065      52.209044
                                                       120.318165      58.873073
                                                        44.788749      49.057447
                                                        17.829279      24.948430
                                                         7.224715       4.705765

                          8       1    3px              28.143220      -1.872769
                                                         3.874324       2.990958
                                                         1.541075       1.652988
                          8       1    3py              28.143220      -1.872769
                                                         3.874324       2.990958
                                                         1.541075       1.652988
                          8       1    3pz              28.143220      -1.872769
                                                         3.874324       2.990958
                                                         1.541075       1.652988

                          9       1    3px               0.633659       0.805860
                          9       1    3py               0.633659       0.805860
                          9       1    3pz               0.633659       0.805860

                         10       1    3px               0.200000       0.190646
                         10       1    3py               0.200000       0.190646
                         10       1    3pz               0.200000       0.190646

                         11       1    3dx2             61.996675      43.957136
                                                        17.873733      30.490665
                                                         6.274478      15.404584
                                                         2.355234       4.790357
                         11       1    3dxy             61.996675      76.135992
                                                        17.873733      52.811380
                                                         6.274478      26.681522
                                                         2.355234       8.297142
                         11       1    3dxz             61.996675      76.135992
                                                        17.873733      52.811380
                                                         6.274478      26.681522
                                                         2.355234       8.297142
                         11       1    3dy2             61.996675      43.957136
                                                        17.873733      30.490665
                                                         6.274478      15.404584
                                                         2.355234       4.790357
                         11       1    3dyz             61.996675      76.135992
                                                        17.873733      52.811380
                                                         6.274478      26.681522
                                                         2.355234       8.297142
                         11       1    3dz2             61.996675      43.957136
                                                        17.873733      30.490665
                                                         6.274478      15.404584
                                                         2.355234       4.790357

                         12       1    3dx2              0.841716       1.217444
                         12       1    3dxy              0.841716       2.108675
                         12       1    3dxz              0.841716       2.108675
                         12       1    3dy2              0.841716       1.217444
                         12       1    3dyz              0.841716       2.108675
                         12       1    3dz2              0.841716       1.217444

                         13       1    3dx2              0.261110       0.156982
                         13       1    3dxy              0.261110       0.271901
                         13       1    3dxz              0.261110       0.271901
                         13       1    3dy2              0.261110       0.156982
                         13       1    3dyz              0.261110       0.271901
                         13       1    3dz2              0.261110       0.156982

                         14       1    4fx3              1.198000       2.210458
                         14       1    4fx2y             1.198000       4.942735
                         14       1    4fx2z             1.198000       4.942735
                         14       1    4fxy2             1.198000       4.942735
                         14       1    4fxyz             1.198000       8.561067
                         14       1    4fxz2             1.198000       4.942735
                         14       1    4fy3              1.198000       2.210458
                         14       1    4fy2z             1.198000       4.942735
                         14       1    4fyz2             1.198000       4.942735
                         14       1    4fz3              1.198000       2.210458

       Atomic covalent radius [Angstrom]:                                  1.170

       Atomic van der Waals radius [Angstrom]:                             1.510

     The atoms of this atomic kind are PAW atoms (GAPW):
       Hard Gaussian function radius:                                      1.512
       Rho0 radius:                                                        1.512
       Maximum GTO radius used for PAW projector construction:            24.566

     GAPW Soft Basis Set                                      pob-TZVP-rev2_soft

       Number of orbital shell sets:                                          14
       Number of orbital shells:                                              14
       Number of primitive Cartesian functions:                               12
       Number of Cartesian basis functions:                                   46
       Number of spherical basis functions:                                   40
       Norm type:                                                              2

       Normalised Cartesian orbitals:

                        Set   Shell   Orbital            Exponent    Coefficient

                          1       1    1s         

                          2       1    2s         

                          3       1    3s                1.736004       1.263566

                          4       1    4s                1.256517       0.845836

                          5       1    4s                0.575484       0.470907

                          6       1    4s                0.155892       0.176818

                          7       1    2px        
                          7       1    2py        
                          7       1    2pz        

                          8       1    3px               3.874324       2.990958
                                                         1.541075       1.652988
                          8       1    3py               3.874324       2.990958
                                                         1.541075       1.652988
                          8       1    3pz               3.874324       2.990958
                                                         1.541075       1.652988

                          9       1    3px               0.633659       0.805860
                          9       1    3py               0.633659       0.805860
                          9       1    3pz               0.633659       0.805860

                         10       1    3px               0.200000       0.190646
                         10       1    3py               0.200000       0.190646
                         10       1    3pz               0.200000       0.190646

                         11       1    3dx2              2.355234       4.790357
                         11       1    3dxy              2.355234       8.297142
                         11       1    3dxz              2.355234       8.297142
                         11       1    3dy2              2.355234       4.790357
                         11       1    3dyz              2.355234       8.297142
                         11       1    3dz2              2.355234       4.790357

                         12       1    3dx2              0.841716       1.217444
                         12       1    3dxy              0.841716       2.108675
                         12       1    3dxz              0.841716       2.108675
                         12       1    3dy2              0.841716       1.217444
                         12       1    3dyz              0.841716       2.108675
                         12       1    3dz2              0.841716       1.217444

                         13       1    3dx2              0.261110       0.156982
                         13       1    3dxy              0.261110       0.271901
                         13       1    3dxz              0.261110       0.271901
                         13       1    3dy2              0.261110       0.156982
                         13       1    3dyz              0.261110       0.271901
                         13       1    3dz2              0.261110       0.156982

                         14       1    4fx3              1.198000       2.210458
                         14       1    4fx2y             1.198000       4.942735
                         14       1    4fx2z             1.198000       4.942735
                         14       1    4fxy2             1.198000       4.942735
                         14       1    4fxyz             1.198000       8.561067
                         14       1    4fxz2             1.198000       4.942735
                         14       1    4fy3              1.198000       2.210458
                         14       1    4fy2z             1.198000       4.942735
                         14       1    4fyz2             1.198000       4.942735
                         14       1    4fz3              1.198000       2.210458

     AE Potential information for                                            ALL

       Description:                                       All-electron potential
                                          Krack, Parrinello, PCCP 2, 2105 (2000)

       Gaussian exponent of the core charge distribution:               3.858025
       Electronic configuration (s p d ...):                           8  12   6

  2. Atomic kind: Ga                                    Number of atoms:      36

     Orbital Basis Set                                             pob-TZVP-rev2

       Number of orbital shell sets:                                          15
       Number of orbital shells:                                              15
       Number of primitive Cartesian functions:                               37
       Number of Cartesian basis functions:                                   45
       Number of spherical basis functions:                                   41
       Norm type:                                                              2

       Normalised Cartesian orbitals:

                        Set   Shell   Orbital            Exponent    Coefficient

                          1       1    1s           435548.662540       2.853703
                                                     65289.589031       5.330744
                                                     14858.784256       9.136404
                                                      4205.973473      14.425716
                                                      1369.641643      20.291377
                                                       492.303489      22.448844
                                                       191.419232      15.950871
                                                        75.840559       4.259129

                          2       1    2s              474.308106      -1.831972
                                                       147.102976      -3.602619
                                                        23.982599       4.297830
                                                        10.298230       2.182325

                          3       1    3s               16.050381      -2.212132
                                                         2.698847       1.766991

                          4       1    3s                1.159006       0.796113

                          5       1    4s                0.576308       0.471413

                          6       1    4s                0.193383       0.207837

                          7       1    2px            2432.017107      61.467914
                                                       576.120496      83.057113
                                                       185.115844      95.609253
                                                        69.246573      82.310910
                                                        27.818108      43.455118
                                                        11.420230       8.656285
                          7       1    2py            2432.017107      61.467914
                                                       576.120496      83.057113
                                                       185.115844      95.609253
                                                        69.246573      82.310910
                                                        27.818108      43.455118
                                                        11.420230       8.656285
                          7       1    2pz            2432.017107      61.467914
                                                       576.120496      83.057113
                                                       185.115844      95.609253
                                                        69.246573      82.310910
                                                        27.818108      43.455118
                                                        11.420230       8.656285

                          8       1    3px              42.819662      -3.573586
                                                         6.388590       5.413105
                                                         2.669899       3.319493
                          8       1    3py              42.819662      -3.573586
                                                         6.388590       5.413105
                                                         2.669899       3.319493
                          8       1    3pz              42.819662      -3.573586
                                                         6.388590       5.413105
                                                         2.669899       3.319493

                          9       1    4px               1.066393       1.544674
                          9       1    4py               1.066393       1.544674
                          9       1    4pz               1.066393       1.544674

                         10       1    4px               0.364140       0.403204
                         10       1    4py               0.364140       0.403204
                         10       1    4pz               0.364140       0.403204

                         11       1    4px               0.144822       0.127345
                         11       1    4py               0.144822       0.127345
                         11       1    4pz               0.144822       0.127345

                         12       1    3dx2            103.923318      70.472744
                                                        30.371094      52.571393
                                                        10.872078      27.805021
                                                         4.154914       8.859365
                                                         1.534566       1.569684
                         12       1    3dxy            103.923318     122.062373
                                                        30.371094      91.056324
                                                        10.872078      48.159709
                                                         4.154914      15.344870
                                                         1.534566       2.718772
                         12       1    3dxz            103.923318     122.062373
                                                        30.371094      91.056324
                                                        10.872078      48.159709
                                                         4.154914      15.344870
                                                         1.534566       2.718772
                         12       1    3dy2            103.923318      70.472744
                                                        30.371094      52.571393
                                                        10.872078      27.805021
                                                         4.154914       8.859365
                                                         1.534566       1.569684
                         12       1    3dyz            103.923318     122.062373
                                                        30.371094      91.056324
                                                        10.872078      48.159709
                                                         4.154914      15.344870
                                                         1.534566       2.718772
                         12       1    3dz2            103.923318      70.472744
                                                        30.371094      52.571393
                                                        10.872078      27.805021
                                                         4.154914       8.859365
                                                         1.534566       1.569684

                         13       1    3dx2              1.391571       2.934566
                         13       1    3dxy              1.391571       5.082818
                         13       1    3dxz              1.391571       5.082818
                         13       1    3dy2              1.391571       2.934566
                         13       1    3dyz              1.391571       5.082818
                         13       1    3dz2              1.391571       2.934566

                         14       1    3dx2              0.685203       0.849362
                         14       1    3dxy              0.685203       1.471139
                         14       1    3dxz              0.685203       1.471139
                         14       1    3dy2              0.685203       0.849362
                         14       1    3dyz              0.685203       1.471139
                         14       1    3dz2              0.685203       0.849362

                         15       1    3dx2              0.283072       0.180813
                         15       1    3dxy              0.283072       0.313178
                         15       1    3dxz              0.283072       0.313178
                         15       1    3dy2              0.283072       0.180813
                         15       1    3dyz              0.283072       0.313178
                         15       1    3dz2              0.283072       0.180813

       Atomic covalent radius [Angstrom]:                                  1.260

       Atomic van der Waals radius [Angstrom]:                             1.870

     The atoms of this atomic kind are PAW atoms (GAPW):
       Hard Gaussian function radius:                                      1.512
       Rho0 radius:                                                        1.512
       Maximum GTO radius used for PAW projector construction:            24.566

     GAPW Soft Basis Set                                      pob-TZVP-rev2_soft

       Number of orbital shell sets:                                          15
       Number of orbital shells:                                              15
       Number of primitive Cartesian functions:                               13
       Number of Cartesian basis functions:                                   45
       Number of spherical basis functions:                                   41
       Norm type:                                                              2

       Normalised Cartesian orbitals:

                        Set   Shell   Orbital            Exponent    Coefficient

                          1       1    1s         

                          2       1    2s         

                          3       1    3s                2.698847       1.766991

                          4       1    3s                1.159006       0.796113

                          5       1    4s                0.576308       0.471413

                          6       1    4s                0.193383       0.207837

                          7       1    2px        
                          7       1    2py        
                          7       1    2pz        

                          8       1    3px               2.669899       3.319493
                          8       1    3py               2.669899       3.319493
                          8       1    3pz               2.669899       3.319493

                          9       1    4px               1.066393       1.544674
                          9       1    4py               1.066393       1.544674
                          9       1    4pz               1.066393       1.544674

                         10       1    4px               0.364140       0.403204
                         10       1    4py               0.364140       0.403204
                         10       1    4pz               0.364140       0.403204

                         11       1    4px               0.144822       0.127345
                         11       1    4py               0.144822       0.127345
                         11       1    4pz               0.144822       0.127345

                         12       1    3dx2              4.154914       8.859365
                                                         1.534566       1.569684
                         12       1    3dxy              4.154914      15.344870
                                                         1.534566       2.718772
                         12       1    3dxz              4.154914      15.344870
                                                         1.534566       2.718772
                         12       1    3dy2              4.154914       8.859365
                                                         1.534566       1.569684
                         12       1    3dyz              4.154914      15.344870
                                                         1.534566       2.718772
                         12       1    3dz2              4.154914       8.859365
                                                         1.534566       1.569684

                         13       1    3dx2              1.391571       2.934566
                         13       1    3dxy              1.391571       5.082818
                         13       1    3dxz              1.391571       5.082818
                         13       1    3dy2              1.391571       2.934566
                         13       1    3dyz              1.391571       5.082818
                         13       1    3dz2              1.391571       2.934566

                         14       1    3dx2              0.685203       0.849362
                         14       1    3dxy              0.685203       1.471139
                         14       1    3dxz              0.685203       1.471139
                         14       1    3dy2              0.685203       0.849362
                         14       1    3dyz              0.685203       1.471139
                         14       1    3dz2              0.685203       0.849362

                         15       1    3dx2              0.283072       0.180813
                         15       1    3dxy              0.283072       0.313178
                         15       1    3dxz              0.283072       0.313178
                         15       1    3dy2              0.283072       0.180813
                         15       1    3dyz              0.283072       0.313178
                         15       1    3dz2              0.283072       0.180813

     AE Potential information for                                            ALL

       Description:                                       All-electron potential
                                          Krack, Parrinello, PCCP 2, 2105 (2000)

       Gaussian exponent of the core charge distribution:               2.082466
       Electronic configuration (s p d ...):                           8  13  10

  3. Atomic kind: Te                                    Number of atoms:      72

     Orbital Basis Set                                         pob-TZVP-rev2-q24

       Number of orbital shell sets:                                          12
       Number of orbital shells:                                              12
       Number of primitive Cartesian functions:                               27
       Number of Cartesian basis functions:                                   40
       Number of spherical basis functions:                                   36
       Norm type:                                                              2

       Normalised Cartesian orbitals:

                        Set   Shell   Orbital            Exponent    Coefficient

                          1       1    1s             6213.200165       0.095947
                                                       920.896400       0.157261
                                                       199.280427       0.151592
                                                        24.774233      -0.523393
                                                        14.838199       5.717966

                          2       1    2s               12.278762       3.244370
                                                         6.380785       0.923847

                          3       1    2s                2.221174       0.953174
                                                         1.077604       0.213974

                          4       1    2s                0.185180       0.201190

                          5       1    2px             204.294009       2.006855
                                                        18.208759      14.503054
                                                         9.921102     -30.975172
                          5       1    2py             204.294009       2.006855
                                                        18.208759      14.503054
                                                         9.921102     -30.975172
                          5       1    2pz             204.294009       2.006855
                                                        18.208759      14.503054
                                                         9.921102     -30.975172

                          6       1    3px               3.144153       2.222505
                                                         1.722088       1.344426
                                                         0.890989       0.256485
                          6       1    3py               3.144153       2.222505
                                                         1.722088       1.344426
                                                         0.890989       0.256485
                          6       1    3pz               3.144153       2.222505
                                                         1.722088       1.344426
                                                         0.890989       0.256485

                          7       1    3px               0.505991       0.608302
                          7       1    3py               0.505991       0.608302
                          7       1    3pz               0.505991       0.608302

                          8       1    3px               0.151355       0.134566
                          8       1    3py               0.151355       0.134566
                          8       1    3pz               0.151355       0.134566

                          9       1    3dx2            121.510552       5.083872
                                                        32.968794       5.048509
                                                        19.249862      -2.832737
                                                         4.719841       5.486196
                                                         2.342806       3.433014
                                                         1.113538       0.831272
                          9       1    3dxy            121.510552       8.805524
                                                        32.968794       8.744275
                                                        19.249862      -4.906444
                                                         4.719841       9.502371
                                                         2.342806       5.946154
                                                         1.113538       1.439805
                          9       1    3dxz            121.510552       8.805524
                                                        32.968794       8.744275
                                                        19.249862      -4.906444
                                                         4.719841       9.502371
                                                         2.342806       5.946154
                                                         1.113538       1.439805
                          9       1    3dy2            121.510552       5.083872
                                                        32.968794       5.048509
                                                        19.249862      -2.832737
                                                         4.719841       5.486196
                                                         2.342806       3.433014
                                                         1.113538       0.831272
                          9       1    3dyz            121.510552       8.805524
                                                        32.968794       8.744275
                                                        19.249862      -4.906444
                                                         4.719841       9.502371
                                                         2.342806       5.946154
                                                         1.113538       1.439805
                          9       1    3dz2            121.510552       5.083872
                                                        32.968794       5.048509
                                                        19.249862      -2.832737
                                                         4.719841       5.486196
                                                         2.342806       3.433014
                                                         1.113538       0.831272

                         10       1    3dx2              0.912206       1.401432
                         10       1    3dxy              0.912206       2.427351
                         10       1    3dxz              0.912206       2.427351
                         10       1    3dy2              0.912206       1.401432
                         10       1    3dyz              0.912206       2.427351
                         10       1    3dz2              0.912206       1.401432

                         11       1    3dx2              0.447224       0.402558
                         11       1    3dxy              0.447224       0.697251
                         11       1    3dxz              0.447224       0.697251
                         11       1    3dy2              0.447224       0.402558
                         11       1    3dyz              0.447224       0.697251
                         11       1    3dz2              0.447224       0.402558

                         12       1    3dx2              0.186283       0.086938
                         12       1    3dxy              0.186283       0.150581
                         12       1    3dxz              0.186283       0.150581
                         12       1    3dy2              0.186283       0.086938
                         12       1    3dyz              0.186283       0.150581
                         12       1    3dz2              0.186283       0.086938

       Atomic covalent radius [Angstrom]:                                  1.360

       Atomic van der Waals radius [Angstrom]:                             2.060

     The atoms of this atomic kind are PAW atoms (GAPW):
       Hard Gaussian function radius:                                      1.512
       Rho0 radius:                                                        1.512
       Maximum GTO radius used for PAW projector construction:            24.566

     GAPW Soft Basis Set                                  pob-TZVP-rev2-q24_soft

       Number of orbital shell sets:                                          12
       Number of orbital shells:                                              12
       Number of primitive Cartesian functions:                               13
       Number of Cartesian basis functions:                                   40
       Number of spherical basis functions:                                   36
       Norm type:                                                              2

       Normalised Cartesian orbitals:

                        Set   Shell   Orbital            Exponent    Coefficient

                          1       1    1s         

                          2       1    2s         

                          3       1    2s                2.221174       0.953174
                                                         1.077604       0.213974

                          4       1    2s                0.185180       0.201190

                          5       1    2px        
                          5       1    2py        
                          5       1    2pz        

                          6       1    3px               3.144153       2.222505
                                                         1.722088       1.344426
                                                         0.890989       0.256485
                          6       1    3py               3.144153       2.222505
                                                         1.722088       1.344426
                                                         0.890989       0.256485
                          6       1    3pz               3.144153       2.222505
                                                         1.722088       1.344426
                                                         0.890989       0.256485

                          7       1    3px               0.505991       0.608302
                          7       1    3py               0.505991       0.608302
                          7       1    3pz               0.505991       0.608302

                          8       1    3px               0.151355       0.134566
                          8       1    3py               0.151355       0.134566
                          8       1    3pz               0.151355       0.134566

                          9       1    3dx2              2.342806       3.433014
                                                         1.113538       0.831272
                          9       1    3dxy              2.342806       5.946154
                                                         1.113538       1.439805
                          9       1    3dxz              2.342806       5.946154
                                                         1.113538       1.439805
                          9       1    3dy2              2.342806       3.433014
                                                         1.113538       0.831272
                          9       1    3dyz              2.342806       5.946154
                                                         1.113538       1.439805
                          9       1    3dz2              2.342806       3.433014
                                                         1.113538       0.831272

                         10       1    3dx2              0.912206       1.401432
                         10       1    3dxy              0.912206       2.427351
                         10       1    3dxz              0.912206       2.427351
                         10       1    3dy2              0.912206       1.401432
                         10       1    3dyz              0.912206       2.427351
                         10       1    3dz2              0.912206       1.401432

                         11       1    3dx2              0.447224       0.402558
                         11       1    3dxy              0.447224       0.697251
                         11       1    3dxz              0.447224       0.697251
                         11       1    3dy2              0.447224       0.402558
                         11       1    3dyz              0.447224       0.697251
                         11       1    3dz2              0.447224       0.402558

                         12       1    3dx2              0.186283       0.086938
                         12       1    3dxy              0.186283       0.150581
                         12       1    3dxz              0.186283       0.150581
                         12       1    3dy2              0.186283       0.086938
                         12       1    3dyz              0.186283       0.150581
                         12       1    3dz2              0.186283       0.086938

     GTH Potential information for                                   GTH-PBE-q24

       Description:                       Goedecker-Teter-Hutter pseudopotential
                                           Goedecker et al., PRB 54, 1703 (1996)
                                          Hartwigsen et al., PRB 58, 3641 (1998)
                                                      Krack, TCA 114, 145 (2005)

       Gaussian exponent of the core charge distribution:               3.395441
       Electronic configuration (s p d ...):                       4  10  10   0

       Parameters of the local part of the GTH pseudopotential:

                          rloc        C1          C2          C3          C4
                        0.383740   23.940060   -4.293777   -0.341044

       Parameters of the non-local part of the GTH pseudopotential:

                   l      r(l)      h(i,j,l)

                   0    0.322592    0.746307    4.284913
                                    4.284913   -5.887605
                   1    0.341686   -0.229021   -0.614417
                                   -0.614417    0.671899
                   2    0.454350    1.765345   -3.093688
                                   -3.093688    3.669181


 MOLECULE KIND INFORMATION


 All atoms are their own molecule, skipping detailed information


 TOTAL NUMBERS AND MAXIMUM NUMBERS

  Total number of            - Atomic kinds:                                   3
                             - Atoms:                                        216
                             - Shell sets:                                  2916
                             - Shells:                                      2916
                             - Primitive Cartesian functions:               7056
                             - Cartesian basis functions:                   9468
                             - Spherical basis functions:                   8388

  Maximum angular momentum of- Orbital basis functions:                        3
                             - Local part of the GTH pseudopotential:          4
                             - Non-local part of the GTH pseudopotential:      4


 MODULE QUICKSTEP: ATOMIC COORDINATES IN ANGSTROM

   Atom Kind Element         X             Y             Z       Z(eff)     Mass
      1    1 Fe   26      0.370488      0.587563     11.319062  26.0000  55.8450
      2    1 Fe   26     -1.629113      4.049182     11.319062  26.0000  55.8450
      3    1 Fe   26     -3.628594      7.510594     11.319062  26.0000  55.8450
      4    1 Fe   26     -5.628196     10.972213     11.319062  26.0000  55.8450
      5    1 Fe   26     -7.627797     14.433832     11.319062  26.0000  55.8450
      6    1 Fe   26     -9.627278     17.895243     11.319062  26.0000  55.8450
      7    1 Fe   26      4.366368      0.587563     11.319062  26.0000  55.8450
      8    1 Fe   26      2.366767      4.049182     11.319062  26.0000  55.8450
      9    1 Fe   26      0.367286      7.510594     11.319062  26.0000  55.8450
     10    1 Fe   26     -1.632316     10.972213     11.319062  26.0000  55.8450
     11    1 Fe   26     -3.631917     14.433832     11.319062  26.0000  55.8450
     12    1 Fe   26     -5.631398     17.895243     11.319062  26.0000  55.8450
     13    1 Fe   26      8.362009      0.587563     11.319062  26.0000  55.8450
     14    1 Fe   26      6.362407      4.049182     11.319062  26.0000  55.8450
     15    1 Fe   26      4.362926      7.510594     11.319062  26.0000  55.8450
     16    1 Fe   26      2.363325     10.972213     11.319062  26.0000  55.8450
     17    1 Fe   26      0.363723     14.433832     11.319062  26.0000  55.8450
     18    1 Fe   26     -1.635758     17.895243     11.319062  26.0000  55.8450
     19    1 Fe   26     12.357889      0.587563     11.319062  26.0000  55.8450
     20    1 Fe   26     10.358287      4.049182     11.319062  26.0000  55.8450
     21    1 Fe   26      8.358806      7.510594     11.319062  26.0000  55.8450
     22    1 Fe   26      6.359205     10.972213     11.319062  26.0000  55.8450
     23    1 Fe   26      4.359603     14.433832     11.319062  26.0000  55.8450
     24    1 Fe   26      2.360122     17.895243     11.319062  26.0000  55.8450
     25    1 Fe   26     16.353769      0.587563     11.319062  26.0000  55.8450
     26    1 Fe   26     14.354167      4.049182     11.319062  26.0000  55.8450
     27    1 Fe   26     12.354686      7.510594     11.319062  26.0000  55.8450
     28    1 Fe   26     10.355085     10.972213     11.319062  26.0000  55.8450
     29    1 Fe   26      8.355483     14.433832     11.319062  26.0000  55.8450
     30    1 Fe   26      6.356002     17.895243     11.319062  26.0000  55.8450
     31    1 Fe   26     20.349409      0.587563     11.319062  26.0000  55.8450
     32    1 Fe   26     18.349808      4.049182     11.319062  26.0000  55.8450
     33    1 Fe   26     16.350326      7.510594     11.319062  26.0000  55.8450
     34    1 Fe   26     14.350725     10.972213     11.319062  26.0000  55.8450
     35    1 Fe   26     12.351124     14.433832     11.319062  26.0000  55.8450
     36    1 Fe   26     10.351642     17.895243     11.319062  26.0000  55.8450
     37    1 Fe   26      0.371207      0.587979      8.909654  26.0000  55.8450
     38    1 Fe   26     -1.628394      4.049598      8.909654  26.0000  55.8450
     39    1 Fe   26     -3.627875      7.511009      8.909654  26.0000  55.8450
     40    1 Fe   26     -5.627477     10.972628      8.909654  26.0000  55.8450
     41    1 Fe   26     -7.627078     14.434247      8.909654  26.0000  55.8450
     42    1 Fe   26     -9.626559     17.895658      8.909654  26.0000  55.8450
     43    1 Fe   26      4.366848      0.587979      8.909654  26.0000  55.8450
     44    1 Fe   26      2.367246      4.049598      8.909654  26.0000  55.8450
     45    1 Fe   26      0.367765      7.511009      8.909654  26.0000  55.8450
     46    1 Fe   26     -1.631836     10.972628      8.909654  26.0000  55.8450
     47    1 Fe   26     -3.631438     14.434247      8.909654  26.0000  55.8450
     48    1 Fe   26     -5.630919     17.895658      8.909654  26.0000  55.8450
     49    1 Fe   26      8.362728      0.587979      8.909654  26.0000  55.8450
     50    1 Fe   26      6.363126      4.049598      8.909654  26.0000  55.8450
     51    1 Fe   26      4.363645      7.511009      8.909654  26.0000  55.8450
     52    1 Fe   26      2.364044     10.972628      8.909654  26.0000  55.8450
     53    1 Fe   26      0.364442     14.434247      8.909654  26.0000  55.8450
     54    1 Fe   26     -1.635039     17.895658      8.909654  26.0000  55.8450
     55    1 Fe   26     12.358608      0.587979      8.909654  26.0000  55.8450
     56    1 Fe   26     10.359006      4.049598      8.909654  26.0000  55.8450
     57    1 Fe   26      8.359525      7.511009      8.909654  26.0000  55.8450
     58    1 Fe   26      6.359924     10.972628      8.909654  26.0000  55.8450
     59    1 Fe   26      4.360322     14.434247      8.909654  26.0000  55.8450
     60    1 Fe   26      2.360841     17.895658      8.909654  26.0000  55.8450
     61    1 Fe   26     16.354248      0.587979      8.909654  26.0000  55.8450
     62    1 Fe   26     14.354647      4.049598      8.909654  26.0000  55.8450
     63    1 Fe   26     12.355165      7.511009      8.909654  26.0000  55.8450
     64    1 Fe   26     10.355564     10.972628      8.909654  26.0000  55.8450
     65    1 Fe   26      8.355963     14.434247      8.909654  26.0000  55.8450
     66    1 Fe   26      6.356481     17.895658      8.909654  26.0000  55.8450
     67    1 Fe   26     20.350128      0.587979      8.909654  26.0000  55.8450
     68    1 Fe   26     18.350527      4.049598      8.909654  26.0000  55.8450
     69    1 Fe   26     16.351045      7.511009      8.909654  26.0000  55.8450
     70    1 Fe   26     14.351444     10.972628      8.909654  26.0000  55.8450
     71    1 Fe   26     12.351843     14.434247      8.909654  26.0000  55.8450
     72    1 Fe   26     10.352361     17.895658      8.909654  26.0000  55.8450
     73    1 Fe   26      2.364395      1.747321     10.144387  26.0000  55.8450
     74    1 Fe   26      0.364794      5.208940     10.144387  26.0000  55.8450
     75    1 Fe   26     -1.634807      8.670559     10.144387  26.0000  55.8450
     76    1 Fe   26     -3.634289     12.131970     10.144387  26.0000  55.8450
     77    1 Fe   26     -5.633890     15.593589     10.144387  26.0000  55.8450
     78    1 Fe   26     -7.633491     19.055208     10.144387  26.0000  55.8450
     79    1 Fe   26      6.360036      1.747321     10.144387  26.0000  55.8450
     80    1 Fe   26      4.360434      5.208940     10.144387  26.0000  55.8450
     81    1 Fe   26      2.360833      8.670559     10.144387  26.0000  55.8450
     82    1 Fe   26      0.361352     12.131970     10.144387  26.0000  55.8450
     83    1 Fe   26     -1.638250     15.593589     10.144387  26.0000  55.8450
     84    1 Fe   26     -3.637851     19.055208     10.144387  26.0000  55.8450
     85    1 Fe   26     10.355916      1.747321     10.144387  26.0000  55.8450
     86    1 Fe   26      8.356314      5.208940     10.144387  26.0000  55.8450
     87    1 Fe   26      6.356713      8.670559     10.144387  26.0000  55.8450
     88    1 Fe   26      4.357232     12.131970     10.144387  26.0000  55.8450
     89    1 Fe   26      2.357630     15.593589     10.144387  26.0000  55.8450
     90    1 Fe   26      0.358029     19.055208     10.144387  26.0000  55.8450
     91    1 Fe   26     14.351796      1.747321     10.144387  26.0000  55.8450
     92    1 Fe   26     12.352194      5.208940     10.144387  26.0000  55.8450
     93    1 Fe   26     10.352593      8.670559     10.144387  26.0000  55.8450
     94    1 Fe   26      8.353112     12.131970     10.144387  26.0000  55.8450
     95    1 Fe   26      6.353510     15.593589     10.144387  26.0000  55.8450
     96    1 Fe   26      4.353909     19.055208     10.144387  26.0000  55.8450
     97    1 Fe   26     18.347436      1.747321     10.144387  26.0000  55.8450
     98    1 Fe   26     16.347835      5.208940     10.144387  26.0000  55.8450
     99    1 Fe   26     14.348233      8.670559     10.144387  26.0000  55.8450
    100    1 Fe   26     12.348752     12.131970     10.144387  26.0000  55.8450
    101    1 Fe   26     10.349151     15.593589     10.144387  26.0000  55.8450
    102    1 Fe   26      8.349549     19.055208     10.144387  26.0000  55.8450
    103    1 Fe   26     22.343316      1.747321     10.144387  26.0000  55.8450
    104    1 Fe   26     20.343715      5.208940     10.144387  26.0000  55.8450
    105    1 Fe   26     18.344113      8.670559     10.144387  26.0000  55.8450
    106    1 Fe   26     16.344632     12.131970     10.144387  26.0000  55.8450
    107    1 Fe   26     14.345031     15.593589     10.144387  26.0000  55.8450
    108    1 Fe   26     12.345429     19.055208     10.144387  26.0000  55.8450
    109    2 Ga   31      0.368060      2.900640     10.069567  31.0000  69.7230
    110    2 Ga   31     -1.631542      6.362259     10.069567  31.0000  69.7230
    111    2 Ga   31     -3.631023      9.823670     10.069567  31.0000  69.7230
    112    2 Ga   31     -5.630624     13.285289     10.069567  31.0000  69.7230
    113    2 Ga   31     -7.630226     16.746908     10.069567  31.0000  69.7230
    114    2 Ga   31     -9.629707     20.208320     10.069567  31.0000  69.7230
    115    2 Ga   31      4.363700      2.900640     10.069567  31.0000  69.7230
    116    2 Ga   31      2.364099      6.362259     10.069567  31.0000  69.7230
    117    2 Ga   31      0.364617      9.823670     10.069567  31.0000  69.7230
    118    2 Ga   31     -1.634984     13.285289     10.069567  31.0000  69.7230
    119    2 Ga   31     -3.634585     16.746908     10.069567  31.0000  69.7230
    120    2 Ga   31     -5.634067     20.208320     10.069567  31.0000  69.7230
    121    2 Ga   31      8.359580      2.900640     10.069567  31.0000  69.7230
    122    2 Ga   31      6.359979      6.362259     10.069567  31.0000  69.7230
    123    2 Ga   31      4.360497      9.823670     10.069567  31.0000  69.7230
    124    2 Ga   31      2.360896     13.285289     10.069567  31.0000  69.7230
    125    2 Ga   31      0.361295     16.746908     10.069567  31.0000  69.7230
    126    2 Ga   31     -1.638187     20.208320     10.069567  31.0000  69.7230
    127    2 Ga   31     12.355460      2.900640     10.069567  31.0000  69.7230
    128    2 Ga   31     10.355859      6.362259     10.069567  31.0000  69.7230
    129    2 Ga   31      8.356377      9.823670     10.069567  31.0000  69.7230
    130    2 Ga   31      6.356776     13.285289     10.069567  31.0000  69.7230
    131    2 Ga   31      4.357175     16.746908     10.069567  31.0000  69.7230
    132    2 Ga   31      2.357693     20.208320     10.069567  31.0000  69.7230
    133    2 Ga   31     16.351100      2.900640     10.069567  31.0000  69.7230
    134    2 Ga   31     14.351499      6.362259     10.069567  31.0000  69.7230
    135    2 Ga   31     12.352018      9.823670     10.069567  31.0000  69.7230
    136    2 Ga   31     10.352416     13.285289     10.069567  31.0000  69.7230
    137    2 Ga   31      8.352815     16.746908     10.069567  31.0000  69.7230
    138    2 Ga   31      6.353333     20.208320     10.069567  31.0000  69.7230
    139    2 Ga   31     20.346980      2.900640     10.069567  31.0000  69.7230
    140    2 Ga   31     18.347379      6.362259     10.069567  31.0000  69.7230
    141    2 Ga   31     16.347898      9.823670     10.069567  31.0000  69.7230
    142    2 Ga   31     14.348296     13.285289     10.069567  31.0000  69.7230
    143    2 Ga   31     12.348695     16.746908     10.069567  31.0000  69.7230
    144    2 Ga   31     10.349214     20.208320     10.069567  31.0000  69.7230
    145    3 Te   52      2.373510      1.737767     12.664813  24.0000 127.6000
    146    3 Te   52      0.373909      5.199386     12.664813  24.0000 127.6000
    147    3 Te   52     -1.625692      8.661005     12.664813  24.0000 127.6000
    148    3 Te   52     -3.625174     12.122416     12.664813  24.0000 127.6000
    149    3 Te   52     -5.624775     15.584035     12.664813  24.0000 127.6000
    150    3 Te   52     -7.624376     19.045654     12.664813  24.0000 127.6000
    151    3 Te   52      6.369390      1.737767     12.664813  24.0000 127.6000
    152    3 Te   52      4.369789      5.199386     12.664813  24.0000 127.6000
    153    3 Te   52      2.370188      8.661005     12.664813  24.0000 127.6000
    154    3 Te   52      0.370706     12.122416     12.664813  24.0000 127.6000
    155    3 Te   52     -1.628895     15.584035     12.664813  24.0000 127.6000
    156    3 Te   52     -3.628496     19.045654     12.664813  24.0000 127.6000
    157    3 Te   52     10.365031      1.737767     12.664813  24.0000 127.6000
    158    3 Te   52      8.365429      5.199386     12.664813  24.0000 127.6000
    159    3 Te   52      6.365828      8.661005     12.664813  24.0000 127.6000
    160    3 Te   52      4.366347     12.122416     12.664813  24.0000 127.6000
    161    3 Te   52      2.366745     15.584035     12.664813  24.0000 127.6000
    162    3 Te   52      0.367144     19.045654     12.664813  24.0000 127.6000
    163    3 Te   52     14.360911      1.737767     12.664813  24.0000 127.6000
    164    3 Te   52     12.361309      5.199386     12.664813  24.0000 127.6000
    165    3 Te   52     10.361708      8.661005     12.664813  24.0000 127.6000
    166    3 Te   52      8.362227     12.122416     12.664813  24.0000 127.6000
    167    3 Te   52      6.362625     15.584035     12.664813  24.0000 127.6000
    168    3 Te   52      4.363024     19.045654     12.664813  24.0000 127.6000
    169    3 Te   52     18.356791      1.737767     12.664813  24.0000 127.6000
    170    3 Te   52     16.357189      5.199386     12.664813  24.0000 127.6000
    171    3 Te   52     14.357588      8.661005     12.664813  24.0000 127.6000
    172    3 Te   52     12.358107     12.122416     12.664813  24.0000 127.6000
    173    3 Te   52     10.358505     15.584035     12.664813  24.0000 127.6000
    174    3 Te   52      8.358904     19.045654     12.664813  24.0000 127.6000
    175    3 Te   52     22.352431      1.737767     12.664813  24.0000 127.6000
    176    3 Te   52     20.352830      5.199386     12.664813  24.0000 127.6000
    177    3 Te   52     18.353228      8.661005     12.664813  24.0000 127.6000
    178    3 Te   52     16.353747     12.122416     12.664813  24.0000 127.6000
    179    3 Te   52     14.354146     15.584035     12.664813  24.0000 127.6000
    180    3 Te   52     12.354544     19.045654     12.664813  24.0000 127.6000
    181    3 Te   52      2.371352      1.738598      7.586957  24.0000 127.6000
    182    3 Te   52      0.371871      5.200009      7.586957  24.0000 127.6000
    183    3 Te   52     -1.627730      8.661628      7.586957  24.0000 127.6000
    184    3 Te   52     -3.627332     12.123247      7.586957  24.0000 127.6000
    185    3 Te   52     -5.626813     15.584658      7.586957  24.0000 127.6000
    186    3 Te   52     -7.626414     19.046277      7.586957  24.0000 127.6000
    187    3 Te   52      6.367232      1.738598      7.586957  24.0000 127.6000
    188    3 Te   52      4.367751      5.200009      7.586957  24.0000 127.6000
    189    3 Te   52      2.368150      8.661628      7.586957  24.0000 127.6000
    190    3 Te   52      0.368548     12.123247      7.586957  24.0000 127.6000
    191    3 Te   52     -1.630933     15.584658      7.586957  24.0000 127.6000
    192    3 Te   52     -3.630534     19.046277      7.586957  24.0000 127.6000
    193    3 Te   52     10.363112      1.738598      7.586957  24.0000 127.6000
    194    3 Te   52      8.363631      5.200009      7.586957  24.0000 127.6000
    195    3 Te   52      6.364030      8.661628      7.586957  24.0000 127.6000
    196    3 Te   52      4.364428     12.123247      7.586957  24.0000 127.6000
    197    3 Te   52      2.364947     15.584658      7.586957  24.0000 127.6000
    198    3 Te   52      0.365346     19.046277      7.586957  24.0000 127.6000
    199    3 Te   52     14.358753      1.738598      7.586957  24.0000 127.6000
    200    3 Te   52     12.359271      5.200009      7.586957  24.0000 127.6000
    201    3 Te   52     10.359670      8.661628      7.586957  24.0000 127.6000
    202    3 Te   52      8.360069     12.123247      7.586957  24.0000 127.6000
    203    3 Te   52      6.360587     15.584658      7.586957  24.0000 127.6000
    204    3 Te   52      4.360986     19.046277      7.586957  24.0000 127.6000
    205    3 Te   52     18.354633      1.738598      7.586957  24.0000 127.6000
    206    3 Te   52     16.355151      5.200009      7.586957  24.0000 127.6000
    207    3 Te   52     14.355550      8.661628      7.586957  24.0000 127.6000
    208    3 Te   52     12.355949     12.123247      7.586957  24.0000 127.6000
    209    3 Te   52     10.356467     15.584658      7.586957  24.0000 127.6000
    210    3 Te   52      8.356866     19.046277      7.586957  24.0000 127.6000
    211    3 Te   52     22.350513      1.738598      7.586957  24.0000 127.6000
    212    3 Te   52     20.351031      5.200009      7.586957  24.0000 127.6000
    213    3 Te   52     18.351430      8.661628      7.586957  24.0000 127.6000
    214    3 Te   52     16.351829     12.123247      7.586957  24.0000 127.6000
    215    3 Te   52     14.352347     15.584658      7.586957  24.0000 127.6000
    216    3 Te   52     12.352746     19.046277      7.586957  24.0000 127.6000



 SCF PARAMETERS         Density guess:                                    ATOMIC
                        --------------------------------------------------------
                        max_scf:                                              25
                        max_scf_history:                                       0
                        max_diis:                                              4
                        --------------------------------------------------------
                        eps_scf:                                        1.00E-06
                        eps_scf_history:                                0.00E+00
                        eps_diis:                                       1.00E-01
                        eps_eigval:                                     1.00E-05
                        --------------------------------------------------------
                        level_shift [a.u.]:                             0.000000
                        --------------------------------------------------------
                        Outer loop SCF in use 
                        No variables optimised in outer loop
                        eps_scf                                         1.00E-06
                        max_scf                                               20
                        No outer loop optimization
                        step_size                                       5.00E-01

 PW_GRID| Information for grid number                                          1
 PW_GRID| Grid distributed over                                    16 processors
 PW_GRID| Real space group dimensions                                    16    1
 PW_GRID| the grid is blocked:                                                NO
 PW_GRID| Cutoff [a.u.]                                                    500.0
 PW_GRID| spherical cutoff:                                                   NO
 PW_GRID|   Bounds   1           -240     239                Points:         480
 PW_GRID|   Bounds   2           -240     239                Points:         480
 PW_GRID|   Bounds   3           -200     199                Points:         400
 PW_GRID| Volume element (a.u.^3)  0.7373E-03     Volume (a.u.^3)     67950.0515
 PW_GRID| Grid span                                                    FULLSPACE
 PW_GRID|   Distribution                         Average         Max         Min
[...]
 flops  2097 x   672 x   658        3182298223104       0.0%    100.0%      0.0%
 flops  2097 x   658 x   672        3182298223104       0.0%    100.0%      0.0%
 flops   672 x   672 x  2097        3212127830016       0.0%    100.0%      0.0%
 flops  2097 x   672 x   672        3250006695936       0.0%    100.0%      0.0%
 flops   738 x   738 x  2097        3874065843456       0.0%    100.0%      0.0%
 flops   768 x   768 x   738        3933281452032       0.0%    100.0%      0.0%
 flops   738 x   768 x   768        3933281452032       0.0%    100.0%      0.0%
 flops   768 x   738 x   768        3933281452032       0.0%    100.0%      0.0%
 flops  2097 x   738 x   738        4376597969376       0.0%    100.0%      0.0%
 flops    40 x    40 x   768        4897013760000       0.0%    100.0%      0.0%
 flops    41 x    32 x    41        5976552413952       0.0%    100.0%      0.0%
 flops   640 x   658 x  2097        5990873333760       0.0%    100.0%      0.0%
 flops   658 x   640 x  2097        5990873333760       0.0%    100.0%      0.0%
 flops  2097 x   640 x   658        6061520424960       0.0%    100.0%      0.0%
 flops  2097 x   658 x   640        6061520424960       0.0%    100.0%      0.0%
 flops   640 x   672 x  2097        6118338723840       0.0%    100.0%      0.0%
 flops   672 x   640 x  2097        6118338723840       0.0%    100.0%      0.0%
 flops  2097 x   672 x   640        6190488944640       0.0%    100.0%      0.0%
 flops  2097 x   640 x   672        6190488944640       0.0%    100.0%      0.0%
 flops    36 x    32 x    41       11600189024256       0.0%    100.0%      0.0%
 flops    41 x    32 x    36       11600189024256       0.0%    100.0%      0.0%
 flops   640 x   640 x  2097       11653978521600       0.0%    100.0%      0.0%
 flops  2097 x   640 x   640       11791407513600       0.0%    100.0%      0.0%
 flops   738 x   768 x  2097       12094644584448       0.0%    100.0%      0.0%
 flops   768 x   738 x  2097       12094644584448       0.0%    100.0%      0.0%
 flops   768 x   768 x   768       12279512825856       0.0%    100.0%      0.0%
 flops  2097 x   768 x   738       13663525367808       0.0%    100.0%      0.0%
 flops  2097 x   738 x   768       13663525367808       0.0%    100.0%      0.0%
 flops    36 x    32 x    36       18430962352128       0.0%    100.0%      0.0%
 flops    41 x    32 x    40       19333648373760       0.0%    100.0%      0.0%
 flops    40 x    32 x    41       19333648373760       0.0%    100.0%      0.0%
 flops    36 x    32 x    40       31257187614720       0.0%    100.0%      0.0%
 flops    40 x    32 x    36       31257187614720       0.0%    100.0%      0.0%
 flops  2097 x   658 x  2097       37592288625024       0.0%    100.0%      0.0%
 flops   768 x   768 x  2097       37758890409984       0.0%    100.0%      0.0%
 flops  2097 x   672 x  2097       38392124553216       0.0%    100.0%      0.0%
 flops  2097 x   738 x  2097       42162779643264       0.0%    100.0%      0.0%
 flops  2097 x   768 x   768       42656859684864       0.0%    100.0%      0.0%
 flops    40 x    32 x    40       52993507737600       0.0%    100.0%      0.0%
 flops  2097 x   640 x  2097       73127856291840       0.0%    100.0%      0.0%
 flops  2097 x   768 x  2097      131630141325312       0.0%    100.0%      0.0%
 flops inhomo. stacks                           0       0.0%      0.0%      0.0%
 flops total                       850.841884E+12       0.0%    100.0%      0.0%
 flops max/rank                     55.373784E+12       0.0%    100.0%      0.0%
 matmuls inhomo. stacks                         0       0.0%      0.0%      0.0%
 matmuls total                         2132802912       0.0%    100.0%      0.0%
 number of processed stacks               2962159       0.0%    100.0%      0.0%
 average stack size                                     0.0     720.0       0.0
 marketing flops                     1.133067E+15
 -------------------------------------------------------------------------------
 # multiplications                           4801
 max memory usage/rank               5.497065E+09
 # max total images/rank                        1
 # max 3D layers                                1
 # MPI messages exchanged                  460896
 MPI messages size (bytes):
  total size                         5.697849E+12
  min size                           3.276800E+06
  max size                          35.179272E+06
  average size                      12.362548E+06
 MPI breakdown and total messages size (bytes):
             size <=      128                   0                        0
       128 < size <=     8192                   0                        0
      8192 < size <=    32768                   0                        0
     32768 < size <=   131072                   0                        0
    131072 < size <=  4194304               58800             200275740000
   4194304 < size <= 16777216              335430            3536105773248
  16777216 < size                           66666            1961472231936
 -------------------------------------------------------------------------------
 -                                                                             -
 -                      DBCSR MESSAGE PASSING PERFORMANCE                      -
 -                                                                             -
 -------------------------------------------------------------------------------
 ROUTINE             CALLS      AVE VOLUME [Bytes]
 MP_Bcast              139                     12.
 MP_Allreduce        28620                    502.
 MP_Alltoall         26842                2886162.
 MP_ISend            76816                4727348.
 MP_IRecv            76816                4590232.
 -------------------------------------------------------------------------------

 -------------------------------------------------------------------------------
 -                                                                             -
 -                                DBM STATISTICS                               -
 -                                                                             -
 -------------------------------------------------------------------------------
    M  x    N  x    K                                          COUNT     PERCENT
 -------------------------------------------------------------------------------

 -------------------------------------------------------------------------------
 -                                                                             -
 -                                GRID STATISTICS                              -
 -                                                                             -
 -------------------------------------------------------------------------------
 LP    KERNEL             BACKEND                              COUNT     PERCENT
 2     collocate general  REF                               74189088      15.60%
 2     integrate general  REF                               74060552      15.57%
 3     integrate general  REF                               59519496      12.51%
 3     collocate general  REF                               59447232      12.50%
 1     collocate general  REF                               47967744      10.09%
 1     integrate general  REF                               47832832      10.06%
 4     integrate general  REF                               30838848       6.48%
 4     collocate general  REF                               30697920       6.45%
 0     collocate general  REF                               20449152       4.30%
 0     integrate general  REF                               20352384       4.28%
 5     integrate general  REF                                4900680       1.03%
 5     collocate general  REF                                4773600       1.00%
 6     integrate general  REF                                 301104       0.06%
 6     collocate general  REF                                 279072       0.06%
 7     integrate general  REF                                   1368       0.00%
 -------------------------------------------------------------------------------

 MEMORY| Estimated peak process memory [MiB]                                5321

 -------------------------------------------------------------------------------
 ----                             MULTIGRID INFO                            ----
 -------------------------------------------------------------------------------
 count for grid        1:         541332          cutoff [a.u.]          500.00
 count for grid        2:         232612          cutoff [a.u.]          166.67
 count for grid        3:         316784          cutoff [a.u.]           55.56
 count for grid        4:         126196          cutoff [a.u.]           18.52
 total gridlevel count  :        1216924

 -------------------------------------------------------------------------------
 -                                                                             -
 -                         MESSAGE PASSING PERFORMANCE                         -
 -                                                                             -
 -------------------------------------------------------------------------------

 ROUTINE             CALLS      AVE VOLUME [Bytes]
 MP_Group                4
 MP_Bcast           176680                  62770.
 MP_Allreduce       225474                 581830.
 MP_Sync                58
 MP_Alltoall          7768              225314055.
 MP_SendRecv         12240                1026000.
 MP_ISendRecv        12240                1026000.
 MP_Wait             34713
 MP_ISend            16344               17929534.
 MP_IRecv            16344               17929534.
 MP_Recv              1826                2147328.
 -------------------------------------------------------------------------------


 -------------------------------------------------------------------------------
 -                                                                             -
 -                           R E F E R E N C E S                               -
 -                                                                             -
 -------------------------------------------------------------------------------
 
 CP2K version 2023.1, the CP2K developers group (2023).
 CP2K is freely available from https://www.cp2k.org/ .

 Kuehne,Thomas D.; Iannuzzi,Marcella; Del Ben,Mauro;
 Rybkin,Vladimir V.; Seewald,Patrick; Stein,Frederick; Laino,Teodoro;
 Khaliullin,Rustam Z.; Schuett,Ole; Schiffmann,Florian; Golze,Dorothea;
 Wilhelm,Jan; Chulkov,Sergey; Bani-Hashemian,Mohammad Hossein;
 Weber,Valery; Borstnik,Urban; Taillefumier,Mathieu;
 Jakobovits,Alice Shoshana; Lazzaro,Alfio; Pabst,Hans; Mueller,Tiziano;
 Schade,Robert; Guidon,Manuel; Andermatt,Samuel; Holmberg,Nico;
 Schenter,Gregory K.; Hehn,Anna; Bussy,Augustin; Belleflamme,Fabian;
 Tabacchi,Gloria; Gloess,Andreas; Lass,Michael; Bethune,Iain;
 Mundy,Christopher J.; Plessl,Christian; Watkins,Matt;
 VandeVondele,Joost; Krack,Matthias; Hutter,Juerg. 
 The Journal of Chemical Physics, 152 (19), (2020). 
 CP2K: An electronic structure and molecular dynamics software package -
 Quickstep: Efficient and accurate electronic structure calculations.
 https://doi.org/10.1063/5.0007045

 Schuett, Ole; Messmer, Peter; Hutter, Juerg; VandeVondele, Joost. 
 Electronic Structure Calculations on Graphics Processing Units, John
 Wiley & Sons, Ltd, 173-190 (2016). 
 GPU-Accelerated Sparse Matrix-Matrix Multiplication for
 Linear Scaling Density Functional Theory.
 https://doi.org/10.1002/9781118670712.ch8

 Heinecke, A; Henry, G; Hutchinson, M; Pabst, H. 
 Proceedings of Intl. Supercomputing Conference, 981-991 (2016). 
 LIBXSMM: Accelerating Small Matrix Multiplications
 by Runtime Code Generation.
 https://doi.org/10.1109/SC.2016.83

 Borstnik, U; VandeVondele, J; Weber, V; Hutter, J. 
 PARALLEL COMPUTING, 40 (5-6), 47-58 (2014). 
 Sparse matrix multiplication: The distributed block-compressed sparse
 row library.
 https://doi.org/10.1016/j.parco.2014.03.012

 Hutter, J; Iannuzzi, M; Schiffmann, F; VandeVondele, J. 
 WIREs Comput Mol Sci., 4 (1), 15-25 (2014). 
 CP2K: atomistic simulations of condensed matter systems.
 https://doi.org/10.1002/wcms.1159

 Weber, V; VandeVondele, J; Hutter, J; Niklasson, AMN. 
 JOURNAL OF CHEMICAL PHYSICS, 128 (8), 084113 (2008). 
 Direct energy functional minimization under orthogonality constraints.
 https://doi.org/10.1063/1.2841077

 Krack, M. 
 THEORETICAL CHEMISTRY ACCOUNTS, 114 (1-3), 145-152 (2005). 
 Pseudopotentials for H to Kr optimized for gradient-corrected
 exchange-correlation functionals.
 https://doi.org/10.1007/s00214-005-0655-y

 Frigo, M; Johnson, SG. 
 PROCEEDINGS OF THE IEEE, 93 (2), 216-231 (2005). 
 The design and implementation of FFTW3.
 https://doi.org/10.1109/JPROC.2004.840301

 VandeVondele, J; Hutter, J. 
 JOURNAL OF CHEMICAL PHYSICS, 118 (10), 4365-4369 (2003). 
 An efficient orbital transformation method for electronic structure
 calculations.
 https://doi.org/10.1063/1.1543154

 Lippert, G; Hutter, J; Parrinello, M. 
 THEORETICAL CHEMISTRY ACCOUNTS, 103 (2), 124-140 (1999). 
 The Gaussian and augmented-plane-wave density functional method for ab
 initio molecular dynamics simulations.
 https://doi.org/10.1007/s002140050523

 Krack, M; Parrinello, M. 
 PHYSICAL CHEMISTRY CHEMICAL PHYSICS, 2 (10), 2105-2112 (2000). 
 All-electron ab-initio molecular dynamics.
 https://doi.org/10.1039/b001167n

 Hartwigsen, C; Goedecker, S; Hutter, J. 
 PHYSICAL REVIEW B, 58 (7), 3641-3662 (1998). 
 Relativistic separable dual-space Gaussian pseudopotentials from H to Rn.
 https://doi.org/10.1103/PhysRevB.58.3641

 Perdew, JP; Burke, K; Ernzerhof, M. 
 PHYSICAL REVIEW LETTERS, 77 (18), 3865-3868 (1996). 
 Generalized gradient approximation made simple.
 https://doi.org/10.1103/PhysRevLett.77.3865

 Goedecker, S; Teter, M; Hutter, J. 
 PHYSICAL REVIEW B, 54 (3), 1703-1710 (1996). 
 Separable dual-space Gaussian pseudopotentials.
 https://doi.org/10.1103/PhysRevB.54.1703


 -------------------------------------------------------------------------------
 -                                                                             -
 -                                T I M I N G                                  -
 -                                                                             -
 -------------------------------------------------------------------------------
 SUBROUTINE                       CALLS  ASD         SELF TIME        TOTAL TIME
                                MAXIMUM       AVERAGE  MAXIMUM  AVERAGE  MAXIMUM
 CP2K                                 1  1.0     0.03     0.04 11614.94 11615.00
 qs_forces                            1  2.0     0.00     0.00 11613.26 11613.32
 qs_energies                          1  3.0     0.00     0.00 11563.78 11563.87
 scf_env_do_scf                       1  4.0     0.00     0.00 11525.01 11525.08
 scf_env_do_scf_inner_loop          203  5.0     0.01     0.01 10767.83 10777.32
 rebuild_ks_matrix                  204  7.0     0.00     0.01  7046.78  7052.48
 qs_ks_build_kohn_sham_matrix       204  8.0     0.06     0.11  7046.78  7052.47
 qs_ks_update_qs_env                212  6.0     0.00     0.00  7008.84  7014.49
 qs_rho_update_rho_low              204  6.0     0.01     0.01  2835.04  2836.83
 calculate_rho_elec                 408  7.0    10.54    10.54  2699.35  2701.13
 sum_up_and_integrate               204  9.0    11.31    11.43  2601.15  2601.70
 integrate_v_rspace                 408 10.0     0.01     0.01  2589.83  2590.40
 grid_collocate_task_list           408  8.0  2063.99  2085.91  2063.99  2085.91
 pw_transfer                       7548 11.3     0.51     0.67  2017.48  2027.85
 fft_wrap_pw1pw2                   6936 12.3     0.06     0.07  2006.61  2016.98
 grid_integrate_task_list           408 11.0  1956.53  1983.11  1956.53  1983.11
 fft_wrap_pw1pw2_500               4488 13.8   159.53   161.62  1917.21  1926.44
 qs_vxc_create                      204  9.0     0.02     0.06  1896.13  1896.14
 xc_vxc_pw_create                   204 10.0    73.19    74.08  1896.12  1896.13
 dbcsr_multiply_generic            4801 10.8     0.30     0.34  1411.98  1460.31
 fft3d_ps                          6936 14.3   859.00   865.84  1388.41  1402.51
 prepare_gapw_den                   204  9.0     0.01     0.01  1339.86  1340.33
 qs_scf_new_mos                     203  6.0     0.00     0.00  1233.35  1242.22
 qs_scf_loop_do_ot                  203  7.0     0.01     0.01  1233.35  1242.22
 xc_pw_derive                      2448 12.0     0.02     0.03  1228.24  1238.51
 ot_scf_mini                        203  8.0     0.01     0.02  1106.03  1108.95
 multiply_cannon                   4801 11.8     0.48     0.53  1072.65  1102.85
 multiply_cannon_loop              4801 12.8     0.38     0.40  1044.30  1074.54
 xc_rho_set_and_dset_create         204 11.0    30.17    32.08   985.65   993.17
 multiply_cannon_multrec          19204 13.8   925.35   970.31   925.53   970.53
 calculate_rho0_atom                612 10.0   880.03   893.33   880.03   893.33
 xc_pw_divergence                   408 11.0     0.01     0.01   807.69   817.83
 rs_pw_transfer                    3675 10.5     0.05     0.05   769.86   802.35
 init_scf_loop                        9  5.0     0.00     0.00   754.03   754.69
 density_rs2pw                      408  8.0     0.02     0.03   596.85   629.41
 ot_mini                            203  9.0     0.00     0.00   614.58   617.83
 potential_pw2rs                    408 11.0     0.58     0.63   602.45   603.22
 integrate_vhg0_rspace              204  9.0    44.58    46.01   529.66   530.33
 rs_grid_zero                      1431 12.7   495.11   495.55   495.11   495.55
 qs_ot_get_orbitals_ref             406  9.0     0.01     0.01   489.79   490.18
 rs_pw_transfer_PW2RS_500           614 12.3   129.40   132.74   447.46   452.87
 ot_diis_step                       203 10.0     0.03     0.03   446.93   446.94
 prepare_preconditioner               9  6.0     0.00     0.00   428.01   428.14
 apply_preconditioner_dbcsr         406 11.0     0.01     0.02   417.75   419.67
 apply_all                          406 12.0     0.82     0.84   417.73   419.67
 make_preconditioner                 18  7.0     0.00     0.00   398.87   398.90
 make_full_all                       18  8.0     0.03     0.03   374.15   374.16
 mp_sum_dm                       220378  8.4   295.04   326.23   295.04   326.23
 xc_functional_eval                5916 11.0     0.02     0.02   313.29   318.66
 pbe_lsd_eval                      5916 12.0   313.27   318.64   313.27   318.64
 x_to_yz                           3468 15.8   230.36   232.09   297.69   305.62
 put_rho0_on_grid                   204 10.0     8.39     8.49   257.86   258.33
 cp_fm_syevd                         54  9.3     0.00     0.00   257.42   257.43
 cp_fm_syevd_base                    54 10.3   257.38   257.39   257.38   257.39
 pw_gather_p                       3468 13.9   253.35   256.15   253.35   256.15
 yz_to_x                           3468 14.9   160.93   163.00   231.59   239.54
 rs_pw_transfer_RS2PW_500           613 10.7   135.45   139.08   203.10   238.36
 -------------------------------------------------------------------------------

 The number of warnings for this run is : 0
 
 -------------------------------------------------------------------------------
  **** **** ******  **  PROGRAM ENDED AT                 2024-10-31 18:09:37.469
 ***** ** ***  *** **   PROGRAM RAN ON                                      cu63
 **    ****   ******    PROGRAM RAN BY                         changruiwang-ICME
 ***** **    ** ** **   PROGRAM PROCESS ID                                135548
  **** **  *******  **  PROGRAM STOPPED IN /home/changruiwang-ICME/test/cp2k/Fe3
                                           GaTe2/OT_pob
